
    -----------------------------------------------------------------------
          Psi4: An Open-Source Ab Initio Electronic Structure Package
                               Psi4 1.1 release

                         Git: Rev {HEAD} add49b9 


    R. M. Parrish, L. A. Burns, D. G. A. Smith, A. C. Simmonett,
    A. E. DePrince III, E. G. Hohenstein, U. Bozkaya, A. Yu. Sokolov,
    R. Di Remigio, R. M. Richard, J. F. Gonthier, A. M. James,
    H. R. McAlexander, A. Kumar, M. Saitow, X. Wang, B. P. Pritchard,
    P. Verma, H. F. Schaefer III, K. Patkowski, R. A. King, E. F. Valeev,
    F. A. Evangelista, J. M. Turney, T. D. Crawford, and C. D. Sherrill,
    J. Chem. Theory Comput. in press (2017).
    (doi: 10.1021/acs.jctc.7b00174)

    -----------------------------------------------------------------------


    Psi4 started on: Tuesday, 12 September 2017 03:09PM

    Process ID: 182870
    PSIDATADIR: /usr/local/google/home/babbush/anaconda2/share/psi4
    Memory:     500.0 MiB
    Threads:    1
    
  ==> Input File <==

--------------------------------------------------------------------------
"""This is a template for psi4 input format."""
import numpy
import sys

from openfermion.config import *
from openfermion.ops._interaction_tensor import (one_body_basis_change,
                                                 two_body_basis_change)
from openfermion.utils import MolecularData
from numpy import array

sys.path.append('/usr/local/google/home/babbush/Desktop/FermiLib-Plugin-Psi4/openfermionpsi4')
from _psi4_conversion_functions import *


# Set memory that job can use in megabytes.
memory 8000 mb

# Initialize molecular data.
_description = 'ring_0.7414'
if _description == 'None':
    _description = None
molecule = MolecularData([('H', (0.85437633766579357, 0.0, 0.0)), ('H', (0.53269493348403607, 0.6679783186628534, 0.0)), ('H', (-0.19011662060756776, 0.83295533909806485, 0.0)), ('H', (-0.7697664817093649, 0.37070000000000003, 0.0)), ('H', (-0.76976648170936501, -0.37069999999999981, 0.0)), ('H', (-0.19011662060756798, -0.83295533909806485, 0.0)), ('H', (0.53269493348403596, -0.66797831866285351, 0.0))],
                         'sto-3g',
                         2,
                         0,
                         _description,
                          filename='/usr/local/google/home/babbush/Desktop/OpenFermion/src/openfermion/data/H7_sto-3g_doublet_ring_0.7414')

# Set molecular geometry and symmetry.
molecule mol {
H 0.854376337666 0.0 0.0
H 0.532694933484 0.667978318663 0.0
H -0.190116620608 0.832955339098 0.0
H -0.769766481709 0.3707 0.0
H -0.769766481709 -0.3707 0.0
H -0.190116620608 -0.832955339098 0.0
H 0.532694933484 -0.667978318663 0.0
symmetry c1
}
mol.set_multiplicity(2)
mol.set_molecular_charge(0)

# Set reference and guess.
if molecule.multiplicity == 1:
    set reference rhf
    set guess sad
else:
    set reference rohf
    set guess gwh

# Set global parameters of calculation.
set globals {
    basis sto-3g
    freeze_core false
    fail_on_maxiter true
    df_scf_guess false
    opdm true
    tpdm true
    soscf false
    scf_type pk
    maxiter 1e6
    num_amps_print 1e6
    r_convergence 1e-6
    d_convergence 1e-6
    e_convergence 1e-6
    ints_tolerance EQUALITY_TOLERANCE
    damping_percentage 0
}

# Run self-consistent field (SCF) calculation.
if 1:
    try:
        hf_energy, hf_wavefunction = energy('scf', return_wfn=True)
        if 1:
            print('Hartree-Fock energy for {} ({} electrons) is {}.'.format(
                molecule.name, molecule.n_electrons, hf_energy))
    except:
        if 1:
            print('WARNING: SCF calculation failed.')
        else:
            raise
    else:
        # Get orbitals and Fock matrix.
        molecule.hf_energy = hf_energy
        molecule.nuclear_repulsion = mol.nuclear_repulsion_energy()
        molecule.canonical_orbitals = numpy.asarray(hf_wavefunction.Ca())
        molecule.n_orbitals = molecule.canonical_orbitals.shape[0]
        molecule.n_qubits = 2 * molecule.n_orbitals
        molecule.orbital_energies = numpy.asarray(hf_wavefunction.epsilon_a())
        molecule.fock_matrix = numpy.asarray(hf_wavefunction.Fa())

        # Get integrals using MintsHelper.
        mints = MintsHelper(hf_wavefunction.basisset())
        molecule.one_body_integrals = one_body_basis_change(
            numpy.asarray(mints.ao_kinetic()), molecule.canonical_orbitals)
        molecule.one_body_integrals += one_body_basis_change(
            numpy.asarray(mints.ao_potential()), molecule.canonical_orbitals)
        two_body_integrals = numpy.asarray(mints.ao_eri())
        two_body_integrals.reshape((molecule.n_orbitals, molecule.n_orbitals,
                                    molecule.n_orbitals, molecule.n_orbitals))
        two_body_integrals = numpy.einsum('psqr', two_body_integrals)
        two_body_integrals = two_body_basis_change(
            two_body_integrals, molecule.canonical_orbitals)
        molecule.two_body_integrals = two_body_integrals
        molecule.save()


# Perform MP2 energy calculation if there are at least two electrons.
if 1:
    try:
        assert molecule.n_electrons > 1
        mp2_energy = energy('mp2')
        if 1:
            print('MP2 energy for {} ({} electrons) is {}.'.format(
                molecule.name, molecule.n_electrons, mp2_energy))
    except:
        if 1:
            print('WARNING: MP2 calculation failed.')
        else:
            raise
    else:
        molecule.mp2_energy = mp2_energy
        molecule.save()


# Perform configuration interaction singles and doubles (CISD) calculation.
if 1:
    set qc_module detci
    try:
        cisd_energy, cisd_wavefunction = energy('cisd', return_wfn=True)
        if 1:
            print('CISD energy for {} ({} electrons) is {}.'.format(
                molecule.name, molecule.n_electrons, cisd_energy))
    except:
        if 1:
            print('WARNING: CISD calculation failed.')
        else:
            raise
    else:
        # For the functions below, "a" and "b" refer to "up and "down" spins.
        molecule.cisd_energy = cisd_energy

        # Get 1-RDM from CISD calculation.
        cisd_one_rdm_a = numpy.array(cisd_wavefunction.get_opdm(
            0, 0, 'A', True)).reshape(molecule.n_orbitals, molecule.n_orbitals)
        cisd_one_rdm_b = numpy.array(cisd_wavefunction.get_opdm(
            0, 0, 'B', True)).reshape(molecule.n_orbitals, molecule.n_orbitals)

        # Get 2-RDM from CISD calculation.
        cisd_two_rdm_aa = numpy.array(cisd_wavefunction.get_tpdm(
            'AA', False)).reshape(molecule.n_orbitals, molecule.n_orbitals,
                                  molecule.n_orbitals, molecule.n_orbitals)
        cisd_two_rdm_ab = numpy.array(cisd_wavefunction.get_tpdm(
            'AB', False)).reshape(molecule.n_orbitals, molecule.n_orbitals,
                                  molecule.n_orbitals, molecule.n_orbitals)
        cisd_two_rdm_bb = numpy.array(cisd_wavefunction.get_tpdm(
            'BB', False)).reshape(molecule.n_orbitals, molecule.n_orbitals,
                                  molecule.n_orbitals, molecule.n_orbitals)

        # Get overall RDMs.
        cisd_one_rdm, cisd_two_rdm = unpack_spatial_rdm(
            cisd_one_rdm_a, cisd_one_rdm_b, cisd_two_rdm_aa,
            cisd_two_rdm_ab, cisd_two_rdm_bb)

        # Store 1-RDM in molecule file, 2-RDM separately in other file.
        molecule.cisd_one_rdm = cisd_one_rdm
        molecule.cisd_two_rdm = cisd_two_rdm
        molecule.save()


# Perform exact diagonalization.
if 1:
    set qc_module detci
    try:
        fci_energy, fci_wavefunction = energy('fci', return_wfn=True)
        if 1:
            print('FCI energy for {} ({} electrons) is {}.'.format(
                molecule.name, molecule.n_electrons, fci_energy))
    except:
        if 1:
            print('WARNING: FCI calculation failed.')
        else:
            raise
    else:
        # For the functions below, "a" and "b" refer to "up and "down" spins.
        molecule.fci_energy = fci_energy

        # Get 1-RDM from FCI calculation.
        fci_one_rdm_a = numpy.array(fci_wavefunction.get_opdm(
            0, 0, 'A', True)).reshape(molecule.n_orbitals, molecule.n_orbitals)
        fci_one_rdm_b = numpy.array(fci_wavefunction.get_opdm(
            0, 0, 'B', True)).reshape(molecule.n_orbitals, molecule.n_orbitals)

        # Get 2-RDM from FCI calculation.
        fci_two_rdm_aa = numpy.array(fci_wavefunction.get_tpdm(
            'AA', False)).reshape(molecule.n_orbitals, molecule.n_orbitals,
                                  molecule.n_orbitals, molecule.n_orbitals)
        fci_two_rdm_ab = numpy.array(fci_wavefunction.get_tpdm(
            'AB', False)).reshape(molecule.n_orbitals, molecule.n_orbitals,
                                  molecule.n_orbitals, molecule.n_orbitals)
        fci_two_rdm_bb = numpy.array(fci_wavefunction.get_tpdm(
            'BB', False)).reshape(molecule.n_orbitals, molecule.n_orbitals,
                                  molecule.n_orbitals, molecule.n_orbitals)

        # Get overall RDMs.
        fci_one_rdm, fci_two_rdm = unpack_spatial_rdm(
            fci_one_rdm_a, fci_one_rdm_b,
            fci_two_rdm_aa, fci_two_rdm_ab, fci_two_rdm_bb)

        # Store 1-RDM in molecule file, 2-RDM separately in other file.
        molecule.fci_one_rdm = fci_one_rdm
        molecule.fci_two_rdm = fci_two_rdm
        molecule.save()


# Perform coupled cluster singles and doubles (CCSD) calculation.
if 1:
    set qc_module ccenergy
    try:
        ccsd_energy = energy('ccsd')
        if 1:
            print('CCSD energy for {} ({} electrons) is {}.'.format(
                molecule.name, molecule.n_electrons, ccsd_energy))
    except:
        if 1:
            print('WARNING: CCSD calculation failed.')
        else:
            raise
    else:
        molecule.ccsd_energy = ccsd_energy

        # Merge CC amplitudes into molecule by parsing
        psi_filename = outfile_name()
        single_cc_amplitudes, double_cc_amplitudes = (
            parse_psi4_ccsd_amplitudes(
                2 * molecule.n_orbitals,
                molecule.get_n_alpha_electrons(),
                molecule.get_n_beta_electrons(),
                psi_filename))

        molecule.ccsd_single_amps = single_cc_amplitudes
        molecule.ccsd_double_amps = double_cc_amplitudes
        molecule.save()
--------------------------------------------------------------------------

  Memory set to   7.451 GiB by Python driver.

*** tstart() called on google.com
*** at Tue Sep 12 15:09:12 2017

   => Loading Basis Set <=

    Name: STO-3G
    Role: ORBITAL
    Keyword: BASIS
    atoms 1-7 entry H          line    18 file /usr/local/google/home/babbush/anaconda2/share/psi4/basis/sto-3g.gbs 


         ---------------------------------------------------------
                                   SCF
            by Justin Turney, Rob Parrish, and Andy Simmonett
                             ROHF Reference
                        1 Threads,   7629 MiB Core
         ---------------------------------------------------------

  ==> Geometry <==

    Molecular point group: c1
    Full point group: D7h

    Geometry (in Angstrom), charge = 0, multiplicity = 2:

       Center              X                  Y                   Z               Mass       
    ------------   -----------------  -----------------  -----------------  -----------------
           H          0.000000000000    -0.000000000000     0.854376337666     1.007825032070
           H          0.000000000000    -0.667978318663     0.532694933484     1.007825032070
           H          0.000000000000    -0.832955339098    -0.190116620608     1.007825032070
           H          0.000000000000    -0.370700000000    -0.769766481709     1.007825032070
           H          0.000000000000     0.370700000000    -0.769766481709     1.007825032070
           H          0.000000000000     0.832955339098    -0.190116620608     1.007825032070
           H          0.000000000000     0.667978318663     0.532694933484     1.007825032070

  Running in c1 symmetry.

  Rotational constants: A =      6.54704  B =      6.54704  C =      3.27352 [cm^-1]
  Rotational constants: A = 196275.27155  B = 196275.27155  C =  98137.63578 [MHz]
  Nuclear repulsion =    9.992555867629148

  Charge       = 0
  Multiplicity = 2
  Electrons    = 7
  Nalpha       = 4
  Nbeta        = 3

  ==> Algorithm <==

  SCF Algorithm Type is PK.
  DIIS enabled.
  MOM disabled.
  Fractional occupation disabled.
  Guess Type is GWH.
  Energy threshold   = 1.00e-06
  Density threshold  = 1.00e-06
  Integral threshold = 0.00e+00

  ==> Primary Basis <==

  Basis Set: STO-3G
    Blend: STO-3G
    Number of shells: 7
    Number of basis function: 7
    Number of Cartesian functions: 7
    Spherical Harmonics?: true
    Max angular momentum: 0

  ==> Pre-Iterations <==

   -------------------------------------------------------
    Irrep   Nso     Nmo     Nalpha   Nbeta   Ndocc  Nsocc
   -------------------------------------------------------
     A          7       7       0       0       0       0
   -------------------------------------------------------
    Total       7       7       4       3       3       1
   -------------------------------------------------------

  ==> Integral Setup <==

  Using in-core PK algorithm.
   Calculation information:
      Number of atoms:                   7
      Number of AO shells:               7
      Number of primitives:             21
      Number of atomic orbitals:         7
      Number of basis functions:         7

      Integral cutoff                 1.00e-12
      Number of threads:                 1

  Performing in-core PK
  Using 812 doubles for integral storage.
  We computed 406 shell quartets total.
  Whereas there are 406 unique shell quartets.
  ==> DiskJK: Disk-Based J/K Matrices <==

    J tasked:                  Yes
    K tasked:                  Yes
    wK tasked:                  No
    Memory (MB):              5722
    Schwarz Cutoff:          1E-12

    OpenMP threads:              1
  Minimum eigenvalue in the overlap matrix is 1.2569274931E-01.
  Using Symmetric Orthogonalization.

  SCF Guess: Generalized Wolfsberg-Helmholtz.

  ==> Iterations <==

                        Total Energy        Delta E     RMS |[F,P]|

   @ROHF iter   1:    -3.19987613250753   -3.19988e+00   4.18260e-03 
   @ROHF iter   2:    -3.20095069847986   -1.07457e-03   1.07306e-03 DIIS/DAMP
   @ROHF iter   3:    -3.20104760435124   -9.69059e-05   1.96726e-04 DIIS/DAMP
   @ROHF iter   4:    -3.20105131975582   -3.71540e-06   3.00610e-05 DIIS/DAMP
   @ROHF iter   5:    -3.20105137574872   -5.59929e-08   3.27323e-06 DIIS/DAMP
   @ROHF iter   6:    -3.20105137647646   -7.27741e-10   2.42505e-07 DIIS/DAMP

  ==> Post-Iterations <==

    Orbital Energies (a.u.)
    -----------------------

    Doubly Occupied:                                                      

       1A     -0.979508     2A     -0.592894     3A     -0.592647  

    Singly Occupied:                                                      

       4A      0.273786  

    Virtual:                                                              

       5A      0.474551     6A      1.595835     7A      1.595999  

    Final Occupation by Irrep:
              A 
    DOCC [     3 ]
    SOCC [     1 ]

  Energy converged.

  @ROHF Final Energy:    -3.20105137647646

   => Energetics <=

    Nuclear Repulsion Energy =              9.9925558676291484
    One-Electron Energy =                 -22.0798040937443290
    Two-Electron Energy =                   8.8861968496387238
    DFT Exchange-Correlation Energy =       0.0000000000000000
    Empirical Dispersion Energy =           0.0000000000000000
    PCM Polarization Energy =               0.0000000000000000
    EFP Energy =                            0.0000000000000000
    Total Energy =                         -3.2010513764764568



Properties will be evaluated at   0.000000,   0.000000,   0.000000 Bohr

Properties computed using the SCF density matrix

  Nuclear Dipole Moment: (a.u.)
     X:     0.0000      Y:     0.0000      Z:    -0.0000

  Electronic Dipole Moment: (a.u.)
     X:     0.0000      Y:     0.0000      Z:     0.0006

  Dipole Moment: (a.u.)
     X:     0.0000      Y:     0.0000      Z:     0.0006     Total:     0.0006

  Dipole Moment: (Debye)
     X:     0.0000      Y:     0.0000      Z:     0.0016     Total:     0.0016


*** tstop() called on google.com at Tue Sep 12 15:09:12 2017
Module time:
	user time   =       0.18 seconds =       0.00 minutes
	system time =       0.01 seconds =       0.00 minutes
	total time  =          0 seconds =       0.00 minutes
Total time:
	user time   =       0.18 seconds =       0.00 minutes
	system time =       0.01 seconds =       0.00 minutes
	total time  =          0 seconds =       0.00 minutes

*** tstart() called on google.com
*** at Tue Sep 12 15:09:12 2017

   => Loading Basis Set <=

    Name: STO-3G
    Role: ORBITAL
    Keyword: BASIS
    atoms 1-7 entry H          line    18 file /usr/local/google/home/babbush/anaconda2/share/psi4/basis/sto-3g.gbs 


         ---------------------------------------------------------
                                   SCF
            by Justin Turney, Rob Parrish, and Andy Simmonett
                             ROHF Reference
                        1 Threads,   7629 MiB Core
         ---------------------------------------------------------

  ==> Geometry <==

    Molecular point group: c1
    Full point group: D7h

    Geometry (in Angstrom), charge = 0, multiplicity = 2:

       Center              X                  Y                   Z               Mass       
    ------------   -----------------  -----------------  -----------------  -----------------
           H          0.000000000000    -0.000000000000     0.854376337666     1.007825032070
           H          0.000000000000    -0.667978318663     0.532694933484     1.007825032070
           H          0.000000000000    -0.832955339098    -0.190116620608     1.007825032070
           H          0.000000000000    -0.370700000000    -0.769766481709     1.007825032070
           H          0.000000000000     0.370700000000    -0.769766481709     1.007825032070
           H          0.000000000000     0.832955339098    -0.190116620608     1.007825032070
           H          0.000000000000     0.667978318663     0.532694933484     1.007825032070

  Running in c1 symmetry.

  Rotational constants: A =      6.54704  B =      6.54704  C =      3.27352 [cm^-1]
  Rotational constants: A = 196275.27155  B = 196275.27155  C =  98137.63578 [MHz]
  Nuclear repulsion =    9.992555867629148

  Charge       = 0
  Multiplicity = 2
  Electrons    = 7
  Nalpha       = 4
  Nbeta        = 3

  ==> Algorithm <==

  SCF Algorithm Type is PK.
  DIIS enabled.
  MOM disabled.
  Fractional occupation disabled.
  Guess Type is GWH.
  Energy threshold   = 1.00e-06
  Density threshold  = 1.00e-06
  Integral threshold = 0.00e+00

  ==> Primary Basis <==

  Basis Set: STO-3G
    Blend: STO-3G
    Number of shells: 7
    Number of basis function: 7
    Number of Cartesian functions: 7
    Spherical Harmonics?: true
    Max angular momentum: 0

  ==> Pre-Iterations <==

   -------------------------------------------------------
    Irrep   Nso     Nmo     Nalpha   Nbeta   Ndocc  Nsocc
   -------------------------------------------------------
     A          7       7       0       0       0       0
   -------------------------------------------------------
    Total       7       7       4       3       3       1
   -------------------------------------------------------

  ==> Integral Setup <==

  Using in-core PK algorithm.
   Calculation information:
      Number of atoms:                   7
      Number of AO shells:               7
      Number of primitives:             21
      Number of atomic orbitals:         7
      Number of basis functions:         7

      Integral cutoff                 1.00e-12
      Number of threads:                 1

  Performing in-core PK
  Using 812 doubles for integral storage.
  We computed 406 shell quartets total.
  Whereas there are 406 unique shell quartets.
  ==> DiskJK: Disk-Based J/K Matrices <==

    J tasked:                  Yes
    K tasked:                  Yes
    wK tasked:                  No
    Memory (MB):              5722
    Schwarz Cutoff:          1E-12

    OpenMP threads:              1
  Minimum eigenvalue in the overlap matrix is 1.2569274931E-01.
  Using Symmetric Orthogonalization.

  SCF Guess: Generalized Wolfsberg-Helmholtz.

  ==> Iterations <==

                        Total Energy        Delta E     RMS |[F,P]|

   @ROHF iter   1:    -3.19987613250753   -3.19988e+00   4.18260e-03 
   @ROHF iter   2:    -3.20095069847985   -1.07457e-03   1.07306e-03 DIIS/DAMP
   @ROHF iter   3:    -3.20104760435122   -9.69059e-05   1.96726e-04 DIIS/DAMP
   @ROHF iter   4:    -3.20105131975579   -3.71540e-06   3.00610e-05 DIIS/DAMP
   @ROHF iter   5:    -3.20105137574868   -5.59929e-08   3.27323e-06 DIIS/DAMP
   @ROHF iter   6:    -3.20105137647641   -7.27736e-10   2.42505e-07 DIIS/DAMP

  ==> Post-Iterations <==

    Orbital Energies (a.u.)
    -----------------------

    Doubly Occupied:                                                      

       1A     -0.979508     2A     -0.592894     3A     -0.592647  

    Singly Occupied:                                                      

       4A      0.273786  

    Virtual:                                                              

       5A      0.474551     6A      1.595835     7A      1.595999  

    Final Occupation by Irrep:
              A 
    DOCC [     3 ]
    SOCC [     1 ]

  Energy converged.

  @ROHF Final Energy:    -3.20105137647641

   => Energetics <=

    Nuclear Repulsion Energy =              9.9925558676291484
    One-Electron Energy =                 -22.0798040937444888
    Two-Electron Energy =                   8.8861968496389263
    DFT Exchange-Correlation Energy =       0.0000000000000000
    Empirical Dispersion Energy =           0.0000000000000000
    PCM Polarization Energy =               0.0000000000000000
    EFP Energy =                            0.0000000000000000
    Total Energy =                         -3.2010513764764141



Properties will be evaluated at   0.000000,   0.000000,   0.000000 Bohr

Properties computed using the SCF density matrix

  Nuclear Dipole Moment: (a.u.)
     X:     0.0000      Y:    -0.0000      Z:    -0.0000

  Electronic Dipole Moment: (a.u.)
     X:     0.0000      Y:     0.0000      Z:     0.0006

  Dipole Moment: (a.u.)
     X:     0.0000      Y:     0.0000      Z:     0.0006     Total:     0.0006

  Dipole Moment: (Debye)
     X:     0.0000      Y:     0.0000      Z:     0.0016     Total:     0.0016


*** tstop() called on google.com at Tue Sep 12 15:09:12 2017
Module time:
	user time   =       0.14 seconds =       0.00 minutes
	system time =       0.00 seconds =       0.00 minutes
	total time  =          0 seconds =       0.00 minutes
Total time:
	user time   =       0.37 seconds =       0.01 minutes
	system time =       0.01 seconds =       0.00 minutes
	total time  =          0 seconds =       0.00 minutes

*** tstart() called on google.com
*** at Tue Sep 12 15:09:12 2017


  //>>>>>>>>>>>>>>>>>>>>>>>>>>>>>>>>>>>//
  //               DFMP2               //
  //<<<<<<<<<<<<<<<<<<<<<<<<<<<<<<<<<<<//

   => Loading Basis Set <=

    Name: (STO-3G AUX)
    Role: RIFIT
    Keyword: DF_BASIS_MP2
    atoms 1-7 entry H          line    23 file /usr/local/google/home/babbush/anaconda2/share/psi4/basis/def2-qzvpp-ri.gbs 

	 --------------------------------------------------------
	                          DF-MP2                         
	      2nd-Order Density-Fitted Moller-Plesset Theory     
	          ROHF-MBPT(2) Wavefunction,   1 Threads         
	                                                         
	        Rob Parrish, Justin Turney, Andy Simmonett,      
	           Ed Hohenstein, and C. David Sherrill          
	 --------------------------------------------------------

	 --------------------------------------------------------
	                 NBF =     7, NAUX =   392
	 --------------------------------------------------------
	   CLASS    FOCC     OCC    AOCC    AVIR     VIR    FVIR
	   ALPHA       0       4       4       3       3       0
	    BETA       0       3       3       4       4       0
	 --------------------------------------------------------

	-----------------------------------------------------------
	 ==================> DF-MP2 Energies <==================== 
	-----------------------------------------------------------
	 Reference Energy          =      -3.2010513764764141 [Eh]
	 Singles Energy            =      -0.0032917717545436 [Eh]
	 Same-Spin Energy          =      -0.0084922679532861 [Eh]
	 Opposite-Spin Energy      =      -0.0378071761457477 [Eh]
	 Correlation Energy        =      -0.0495912158535775 [Eh]
	 Total Energy              =      -3.2506425923299918 [Eh]
	-----------------------------------------------------------
	 ================> DF-SCS-MP2 Energies <================== 
	-----------------------------------------------------------
	 SCS Same-Spin Scale       =       0.3333333333333333 [-]
	 SCS Opposite-Spin Scale   =       1.2000000000000000 [-]
	 SCS Same-Spin Energy      =      -0.0028307559844287 [Eh]
	 SCS Opposite-Spin Energy  =      -0.0453686113748973 [Eh]
	 SCS Correlation Energy    =      -0.0514911391138696 [Eh]
	 SCS Total Energy          =      -3.2525425155902838 [Eh]
	-----------------------------------------------------------


*** tstop() called on google.com at Tue Sep 12 15:09:12 2017
Module time:
	user time   =       0.24 seconds =       0.00 minutes
	system time =       0.01 seconds =       0.00 minutes
	total time  =          0 seconds =       0.00 minutes
Total time:
	user time   =       0.61 seconds =       0.01 minutes
	system time =       0.02 seconds =       0.00 minutes
	total time  =          0 seconds =       0.00 minutes

*** tstart() called on google.com
*** at Tue Sep 12 15:09:12 2017

   => Loading Basis Set <=

    Name: STO-3G
    Role: ORBITAL
    Keyword: BASIS
    atoms 1-7 entry H          line    18 file /usr/local/google/home/babbush/anaconda2/share/psi4/basis/sto-3g.gbs 


         ---------------------------------------------------------
                                   SCF
            by Justin Turney, Rob Parrish, and Andy Simmonett
                             ROHF Reference
                        1 Threads,   7629 MiB Core
         ---------------------------------------------------------

  ==> Geometry <==

    Molecular point group: c1
    Full point group: D7h

    Geometry (in Angstrom), charge = 0, multiplicity = 2:

       Center              X                  Y                   Z               Mass       
    ------------   -----------------  -----------------  -----------------  -----------------
           H          0.000000000000    -0.000000000000     0.854376337666     1.007825032070
           H          0.000000000000    -0.667978318663     0.532694933484     1.007825032070
           H          0.000000000000    -0.832955339098    -0.190116620608     1.007825032070
           H          0.000000000000    -0.370700000000    -0.769766481709     1.007825032070
           H          0.000000000000     0.370700000000    -0.769766481709     1.007825032070
           H          0.000000000000     0.832955339098    -0.190116620608     1.007825032070
           H          0.000000000000     0.667978318663     0.532694933484     1.007825032070

  Running in c1 symmetry.

  Rotational constants: A =      6.54704  B =      6.54704  C =      3.27352 [cm^-1]
  Rotational constants: A = 196275.27155  B = 196275.27155  C =  98137.63578 [MHz]
  Nuclear repulsion =    9.992555867629150

  Charge       = 0
  Multiplicity = 2
  Electrons    = 7
  Nalpha       = 4
  Nbeta        = 3

  ==> Algorithm <==

  SCF Algorithm Type is PK.
  DIIS enabled.
  MOM disabled.
  Fractional occupation disabled.
  Guess Type is GWH.
  Energy threshold   = 1.00e-06
  Density threshold  = 1.00e-06
  Integral threshold = 0.00e+00

  ==> Primary Basis <==

  Basis Set: STO-3G
    Blend: STO-3G
    Number of shells: 7
    Number of basis function: 7
    Number of Cartesian functions: 7
    Spherical Harmonics?: true
    Max angular momentum: 0

  ==> Pre-Iterations <==

   -------------------------------------------------------
    Irrep   Nso     Nmo     Nalpha   Nbeta   Ndocc  Nsocc
   -------------------------------------------------------
     A          7       7       0       0       0       0
   -------------------------------------------------------
    Total       7       7       4       3       3       1
   -------------------------------------------------------

  ==> Integral Setup <==

  Using in-core PK algorithm.
   Calculation information:
      Number of atoms:                   7
      Number of AO shells:               7
      Number of primitives:             21
      Number of atomic orbitals:         7
      Number of basis functions:         7

      Integral cutoff                 1.00e-12
      Number of threads:                 1

  Performing in-core PK
  Using 812 doubles for integral storage.
  We computed 406 shell quartets total.
  Whereas there are 406 unique shell quartets.
  ==> DiskJK: Disk-Based J/K Matrices <==

    J tasked:                  Yes
    K tasked:                  Yes
    wK tasked:                  No
    Memory (MB):              5722
    Schwarz Cutoff:          1E-12

    OpenMP threads:              1
  Minimum eigenvalue in the overlap matrix is 1.2569274931E-01.
  Using Symmetric Orthogonalization.

  SCF Guess: Generalized Wolfsberg-Helmholtz.

  ==> Iterations <==

                        Total Energy        Delta E     RMS |[F,P]|

   @ROHF iter   1:    -3.19987613250753   -3.19988e+00   4.18260e-03 
   @ROHF iter   2:    -3.20095069847986   -1.07457e-03   1.07306e-03 DIIS/DAMP
   @ROHF iter   3:    -3.20104760435126   -9.69059e-05   1.96726e-04 DIIS/DAMP
   @ROHF iter   4:    -3.20105131975588   -3.71540e-06   3.00610e-05 DIIS/DAMP
   @ROHF iter   5:    -3.20105137574878   -5.59929e-08   3.27323e-06 DIIS/DAMP
   @ROHF iter   6:    -3.20105137647652   -7.27740e-10   2.42505e-07 DIIS/DAMP

  ==> Post-Iterations <==

    Orbital Energies (a.u.)
    -----------------------

    Doubly Occupied:                                                      

       1A     -0.979508     2A     -0.592894     3A     -0.592647  

    Singly Occupied:                                                      

       4A      0.273786  

    Virtual:                                                              

       5A      0.474551     6A      1.595835     7A      1.595999  

    Final Occupation by Irrep:
              A 
    DOCC [     3 ]
    SOCC [     1 ]

  Energy converged.

  @ROHF Final Energy:    -3.20105137647652

   => Energetics <=

    Nuclear Repulsion Energy =              9.9925558676291502
    One-Electron Energy =                 -22.0798040937440021
    Two-Electron Energy =                   8.8861968496383348
    DFT Exchange-Correlation Energy =       0.0000000000000000
    Empirical Dispersion Energy =           0.0000000000000000
    PCM Polarization Energy =               0.0000000000000000
    EFP Energy =                            0.0000000000000000
    Total Energy =                         -3.2010513764765172



Properties will be evaluated at   0.000000,   0.000000,   0.000000 Bohr

Properties computed using the SCF density matrix

  Nuclear Dipole Moment: (a.u.)
     X:     0.0000      Y:    -0.0000      Z:    -0.0000

  Electronic Dipole Moment: (a.u.)
     X:     0.0000      Y:    -0.0000      Z:     0.0006

  Dipole Moment: (a.u.)
     X:     0.0000      Y:    -0.0000      Z:     0.0006     Total:     0.0006

  Dipole Moment: (Debye)
     X:     0.0000      Y:    -0.0000      Z:     0.0016     Total:     0.0016


*** tstop() called on google.com at Tue Sep 12 15:09:13 2017
Module time:
	user time   =       0.12 seconds =       0.00 minutes
	system time =       0.01 seconds =       0.00 minutes
	total time  =          1 seconds =       0.02 minutes
Total time:
	user time   =       0.78 seconds =       0.01 minutes
	system time =       0.03 seconds =       0.00 minutes
	total time  =          1 seconds =       0.02 minutes
 MINTS: Wrapper to libmints.
   by Justin Turney

   Calculation information:
      Number of threads:                 1
      Number of atoms:                   7
      Number of AO shells:               7
      Number of SO shells:               7
      Number of primitives:             21
      Number of atomic orbitals:         7
      Number of basis functions:         7

      Number of irreps:                  1
      Integral cutoff                 0.00e+00
      Number of functions per irrep: [   7 ]

 OEINTS: Overlap, kinetic, potential, dipole, and quadrupole integrals
         stored in file 35.

      Computing two-electron integrals...done
      Computed 406 non-zero two-electron integrals.
        Stored in file 33.


         ---------------------------------------------------------
                          Configuration Interaction
                            (a 'D E T C I' module)

                 C. David Sherrill, Daniel G. A. Smith, and
                              Matt L. Leininger
         ---------------------------------------------------------

Warning: iopen=0,opentype!=closed. Making iopen=1

   ==> Parameters <==

    EX LEVEL       =        2      H0 BLOCKSIZE  =     1000
    VAL EX LEVEL   =        0      H0 GUESS SIZE =     1000
    H0COUPLINGSIZE =        0      H0 COUPLING   =       NO
    MAXITER        =       24      NUM PRINT     =       20
    NUM ROOTS      =        1      ICORE         =        1
    PRINT LVL      =        1      FCI           =       NO
    R CONV         = 1.00e-06      MIXED         =      YES
    E CONV         = 1.00e-06      MIXED4        =      YES
    R4S            =       NO      REPL OTF      =       NO
    DIAG METHOD    =      SEM      FOLLOW ROOT   =        0
    PRECONDITIONER = DAVIDSON      UPDATE        = DAVIDSON
    S              =   0.5000      Ms0           =       NO
    GUESS VECTOR   =  H0BLOCK      OPENTYPE      = HIGHSPIN
    COLLAPSE SIZE  =        1      HD AVG        = EVANGELISTI
    MAX NUM VECS   =       25      REF SYM       =     AUTO
    IOPEN        =      YES

    EX ALLOW       =  1  1 
    STATE AVERAGE  =  0(1.00) 

   ==> CI Orbital and Space information <==

    RAS1 LVL      =        3      A RAS3 MAX    =        2
    RAS1 MIN      =        5      B RAS3 MAX    =        2
    A RAS1 LVL    =        3      RAS4 LVL      =        7
    A RAS1 MIN    =        2      A RAS4 MAX    =        0
    A RAS1 MAX    =        4      B RAS4 MAX    =        0
    B RAS1 LVL    =        3      RAS4 MAX      =        0
    B RAS1 MIN    =        1      A RAS34 MAX   =        2
    B RAS1 MAX    =        3      B RAS34 MAX   =        2
    RAS3 LVL      =        4      RAS34 MAX     =        2
    RAS3 MAX      =        2
   ------------------------------------
               Space    Total     A
   ------------------------------------
                 Nso        7     7
                 Nmo        7     7
               Ndocc        3     3
               Nsocc        1     1
   ------------------------------------
              CI Spaces
   ------------------------------------
        Dropped DOCC        0     0
                RAS1        4     4
                RAS2        0     0
                RAS3        3     3
                RAS4        0     0
      Active (total)        7     7
        Dropped UOCC        0     0
   ------------------------------------

   ==> Setting up CI strings <==

    There are 31 alpha and 34 beta strings
    The CI space requires 370 (3.70E+02) determinants and 6 blocks

   ==> Transforming CI integrals <==

	Presorting SO-basis two-electron integrals.
	Sorting File: SO Ints (nn|nn) nbuckets = 1
	Transforming the one-electron integrals and constructing Fock matrices
	Starting first half-transformation.
	Sorting half-transformed integrals.
	First half integral transformation complete.
	Starting second half-transformation.
	Two-electron integral transformation complete.

   ==> Starting CI iterations <==

    H0 Block Eigenvalue =  -3.26511169

    Simultaneous Expansion Method (Block Davidson Method)
    Using 1 initial trial vectors

     Iter   Root       Total Energy       Delta E      C RMS

   @CI  0:     0     -3.265111692185   -1.3258E+01   2.9238E-14  
    Warning: Norm of correction (root 0) is < 1.0E-13
   @CI  1:     0     -3.265111692185   1.7764E-15   9.4641E-14 c

   ==> Energetics <==

    SCF energy =           -3.201051376476517
    Total CI energy =      -3.265111692185044

   ==> CISD root 0 information <==

    CISD Root 0 energy =    -3.265111692185044

   The 20 most important determinants:

    *   1   -0.983238  (    0,    0)  1AX 2AX 3AX 4AA 
    *   2   -0.061923  (    2,    4)  1AX 2AX 4AA 5AX 
    *   3   -0.061345  (    3,    5)  1AX 3AX 4AA 5AX 
    *   4   -0.055636  (    0,    7)  1AX 2AA 3AA 4AX 5AB 
    *   5    0.037405  (    5,    2)  1AX 2AA 3AX 4AB 6AA 
    *   6    0.037300  (    9,    1)  1AX 2AX 3AA 4AB 7AA 
    *   7    0.036739  (    1,    2)  1AX 2AA 3AX 4AB 5AA 
    *   8   -0.036525  (    9,    5)  1AX 2AA 3AX 5AB 7AA 
    *   9    0.036484  (    5,    4)  1AX 2AX 3AA 5AB 6AA 
    *  10   -0.034396  (    1,    4)  1AX 2AX 3AA 5AX 
    *  11    0.028135  (    3,    1)  1AX 2AB 3AA 4AX 5AA 
    *  12   -0.027501  (    2,    2)  1AX 2AA 3AB 4AX 5AA 
    *  13    0.027407  (    0,    5)  1AX 2AA 3AX 4AA 5AB 
    *  14   -0.025265  (    4,    6)  2AX 3AX 4AA 5AX 
    *  15    0.024900  (   13,    0)  1AX 2AX 3AB 5AA 6AA 
    *  16   -0.024892  (   20,    0)  1AX 2AB 3AX 5AA 7AA 
    *  17   -0.022554  (    5,    3)  1AA 2AX 3AX 4AB 6AA 
    *  18   -0.021640  (    9,    6)  1AA 2AX 3AX 5AB 7AA 
    *  19    0.021439  (    0,   11)  1AX 2AA 3AX 4AA 6AB 
    *  20    0.021379  (    0,   16)  1AX 2AX 3AA 4AA 7AB 

		 "A good bug is a dead bug" 

			 - Starship Troopers

		 "I didn't write FORTRAN.  That's the problem."

			 - Edward Valeev

*** tstart() called on google.com
*** at Tue Sep 12 15:09:13 2017

   => Loading Basis Set <=

    Name: STO-3G
    Role: ORBITAL
    Keyword: BASIS
    atoms 1-7 entry H          line    18 file /usr/local/google/home/babbush/anaconda2/share/psi4/basis/sto-3g.gbs 


         ---------------------------------------------------------
                                   SCF
            by Justin Turney, Rob Parrish, and Andy Simmonett
                             ROHF Reference
                        1 Threads,   7629 MiB Core
         ---------------------------------------------------------

  ==> Geometry <==

    Molecular point group: c1
    Full point group: D7h

    Geometry (in Angstrom), charge = 0, multiplicity = 2:

       Center              X                  Y                   Z               Mass       
    ------------   -----------------  -----------------  -----------------  -----------------
           H          0.000000000000     0.000000000000     0.854376337666     1.007825032070
           H          0.000000000000    -0.667978318663     0.532694933484     1.007825032070
           H          0.000000000000    -0.832955339098    -0.190116620608     1.007825032070
           H          0.000000000000    -0.370700000000    -0.769766481709     1.007825032070
           H          0.000000000000     0.370700000000    -0.769766481709     1.007825032070
           H          0.000000000000     0.832955339098    -0.190116620608     1.007825032070
           H          0.000000000000     0.667978318663     0.532694933484     1.007825032070

  Running in c1 symmetry.

  Rotational constants: A =      6.54704  B =      6.54704  C =      3.27352 [cm^-1]
  Rotational constants: A = 196275.27155  B = 196275.27155  C =  98137.63578 [MHz]
  Nuclear repulsion =    9.992555867629152

  Charge       = 0
  Multiplicity = 2
  Electrons    = 7
  Nalpha       = 4
  Nbeta        = 3

  ==> Algorithm <==

  SCF Algorithm Type is PK.
  DIIS enabled.
  MOM disabled.
  Fractional occupation disabled.
  Guess Type is GWH.
  Energy threshold   = 1.00e-06
  Density threshold  = 1.00e-06
  Integral threshold = 0.00e+00

  ==> Primary Basis <==

  Basis Set: STO-3G
    Blend: STO-3G
    Number of shells: 7
    Number of basis function: 7
    Number of Cartesian functions: 7
    Spherical Harmonics?: true
    Max angular momentum: 0

  ==> Pre-Iterations <==

   -------------------------------------------------------
    Irrep   Nso     Nmo     Nalpha   Nbeta   Ndocc  Nsocc
   -------------------------------------------------------
     A          7       7       0       0       0       0
   -------------------------------------------------------
    Total       7       7       4       3       3       1
   -------------------------------------------------------

  ==> Integral Setup <==

  Using in-core PK algorithm.
   Calculation information:
      Number of atoms:                   7
      Number of AO shells:               7
      Number of primitives:             21
      Number of atomic orbitals:         7
      Number of basis functions:         7

      Integral cutoff                 1.00e-12
      Number of threads:                 1

  Performing in-core PK
  Using 812 doubles for integral storage.
  We computed 406 shell quartets total.
  Whereas there are 406 unique shell quartets.
  ==> DiskJK: Disk-Based J/K Matrices <==

    J tasked:                  Yes
    K tasked:                  Yes
    wK tasked:                  No
    Memory (MB):              5722
    Schwarz Cutoff:          1E-12

    OpenMP threads:              1
  Minimum eigenvalue in the overlap matrix is 1.2569274931E-01.
  Using Symmetric Orthogonalization.

  SCF Guess: Generalized Wolfsberg-Helmholtz.

  ==> Iterations <==

                        Total Energy        Delta E     RMS |[F,P]|

   @ROHF iter   1:    -3.19987613250753   -3.19988e+00   4.18260e-03 
   @ROHF iter   2:    -3.20095069847985   -1.07457e-03   1.07306e-03 DIIS/DAMP
   @ROHF iter   3:    -3.20104760435139   -9.69059e-05   1.96726e-04 DIIS/DAMP
   @ROHF iter   4:    -3.20105131975622   -3.71540e-06   3.00611e-05 DIIS/DAMP
   @ROHF iter   5:    -3.20105137574915   -5.59929e-08   3.27324e-06 DIIS/DAMP
   @ROHF iter   6:    -3.20105137647689   -7.27740e-10   2.42506e-07 DIIS/DAMP

  ==> Post-Iterations <==

    Orbital Energies (a.u.)
    -----------------------

    Doubly Occupied:                                                      

       1A     -0.979508     2A     -0.592894     3A     -0.592647  

    Singly Occupied:                                                      

       4A      0.273786  

    Virtual:                                                              

       5A      0.474551     6A      1.595835     7A      1.595999  

    Final Occupation by Irrep:
              A 
    DOCC [     3 ]
    SOCC [     1 ]

  Energy converged.

  @ROHF Final Energy:    -3.20105137647689

   => Energetics <=

    Nuclear Repulsion Energy =              9.9925558676291519
    One-Electron Energy =                 -22.0798040937419628
    Two-Electron Energy =                   8.8861968496359225
    DFT Exchange-Correlation Energy =       0.0000000000000000
    Empirical Dispersion Energy =           0.0000000000000000
    PCM Polarization Energy =               0.0000000000000000
    EFP Energy =                            0.0000000000000000
    Total Energy =                         -3.2010513764768884



Properties will be evaluated at   0.000000,   0.000000,   0.000000 Bohr

Properties computed using the SCF density matrix

  Nuclear Dipole Moment: (a.u.)
     X:     0.0000      Y:     0.0000      Z:    -0.0000

  Electronic Dipole Moment: (a.u.)
     X:     0.0000      Y:    -0.0000      Z:     0.0006

  Dipole Moment: (a.u.)
     X:     0.0000      Y:    -0.0000      Z:     0.0006     Total:     0.0006

  Dipole Moment: (Debye)
     X:     0.0000      Y:    -0.0000      Z:     0.0016     Total:     0.0016


*** tstop() called on google.com at Tue Sep 12 15:09:13 2017
Module time:
	user time   =       0.10 seconds =       0.00 minutes
	system time =       0.01 seconds =       0.00 minutes
	total time  =          0 seconds =       0.00 minutes
Total time:
	user time   =       0.98 seconds =       0.02 minutes
	system time =       0.04 seconds =       0.00 minutes
	total time  =          1 seconds =       0.02 minutes
 MINTS: Wrapper to libmints.
   by Justin Turney

   Calculation information:
      Number of threads:                 1
      Number of atoms:                   7
      Number of AO shells:               7
      Number of SO shells:               7
      Number of primitives:             21
      Number of atomic orbitals:         7
      Number of basis functions:         7

      Number of irreps:                  1
      Integral cutoff                 0.00e+00
      Number of functions per irrep: [   7 ]

 OEINTS: Overlap, kinetic, potential, dipole, and quadrupole integrals
         stored in file 35.

      Computing two-electron integrals...done
      Computed 406 non-zero two-electron integrals.
        Stored in file 33.


         ---------------------------------------------------------
                          Configuration Interaction
                            (a 'D E T C I' module)

                 C. David Sherrill, Daniel G. A. Smith, and
                              Matt L. Leininger
         ---------------------------------------------------------

Warning: iopen=0,opentype!=closed. Making iopen=1

   ==> Parameters <==

    EX LEVEL       =        7      H0 BLOCKSIZE  =     1000
    VAL EX LEVEL   =        0      H0 GUESS SIZE =     1000
    H0COUPLINGSIZE =        0      H0 COUPLING   =       NO
    MAXITER        =       24      NUM PRINT     =       20
    NUM ROOTS      =        1      ICORE         =        1
    PRINT LVL      =        1      FCI           =      YES
    R CONV         = 1.00e-06      MIXED         =      YES
    E CONV         = 1.00e-06      MIXED4        =      YES
    R4S            =       NO      REPL OTF      =       NO
    DIAG METHOD    =      SEM      FOLLOW ROOT   =        0
    PRECONDITIONER = DAVIDSON      UPDATE        = DAVIDSON
    S              =   0.5000      Ms0           =       NO
    GUESS VECTOR   =  H0BLOCK      OPENTYPE      = HIGHSPIN
    COLLAPSE SIZE  =        1      HD AVG        = EVANGELISTI
    MAX NUM VECS   =       25      REF SYM       =     AUTO
    IOPEN        =      YES

    EX ALLOW       =  1  1  1  1  1  1  1 
    STATE AVERAGE  =  0(1.00) 

   ==> CI Orbital and Space information <==

   ------------------------------------
               Space    Total     A
   ------------------------------------
                 Nso        7     7
                 Nmo        7     7
               Ndocc        3     3
               Nsocc        1     1
   ------------------------------------
              CI Spaces
   ------------------------------------
        Dropped DOCC        0     0
              Active        7     7
        Dropped UOCC        0     0
   ------------------------------------

   ==> Setting up CI strings <==

    There are 35 alpha and 35 beta strings
    The CI space requires 1225 (1.22E+03) determinants and 1 blocks

   ==> Transforming CI integrals <==

	Presorting SO-basis two-electron integrals.
	Sorting File: SO Ints (nn|nn) nbuckets = 1
	Transforming the one-electron integrals and constructing Fock matrices
	Starting first half-transformation.
	Sorting half-transformed integrals.
	First half integral transformation complete.
	Starting second half-transformation.
	Two-electron integral transformation complete.

   ==> Starting CI iterations <==

    H0 Block Eigenvalue =  -3.26656430

    Simultaneous Expansion Method (Block Davidson Method)
    Using 1 initial trial vectors

     Iter   Root       Total Energy       Delta E      C RMS

   @CI  0:     0     -3.266564298642   -1.3259E+01   1.7930E-02  
   @CI  1:     0     -3.266614528020   -5.0229E-05   1.5753E-03  
   @CI  2:     0     -3.266614985160   -4.5714E-07   2.1283E-04  
   @CI  3:     0     -3.266614994703   -9.5433E-09   4.3102E-05  
   @CI  4:     0     -3.266614995247   -5.4392E-10   1.0013E-05  
   @CI  5:     0     -3.266614995283   -3.5799E-11   2.8336E-06  
   @CI  6:     0     -3.266614995286   -2.7391E-12   5.8661E-07 c

   ==> Energetics <==

    SCF energy =           -3.201051376476888
    Total CI energy =      -3.266614995285730

   ==> FCI root 0 information <==

    FCI Root 0 energy =    -3.266614995285730

   The 20 most important determinants:

    *   1    0.978776  (    1,    0)  1AX 2AX 3AX 5AA 
    *   2   -0.062207  (    3,    2)  1AX 3AX 4AX 5AA 
    *   3   -0.061301  (    2,    1)  1AX 2AX 4AX 5AA 
    *   4    0.061191  (    1,    1)  1AX 2AX 3AA 4AB 5AA 
    *   5    0.059137  (    1,    7)  1AX 2AA 3AA 4AB 5AX 
    *   6    0.046089  (    1,    5)  1AX 2AA 3AX 5AX 
    *   7   -0.038404  (    0,    2)  1AX 2AA 3AX 4AX 
    *   8    0.038055  (   15,    2)  1AX 2AA 3AX 4AB 7AA 
    *   9   -0.038042  (    5,    1)  1AX 2AX 3AA 4AB 6AA 
    *  10    0.037688  (    5,    5)  1AX 2AA 3AX 5AB 6AA 
    *  11    0.037645  (    0,    4)  1AX 2AX 3AA 4AA 5AB 
    *  12    0.037575  (   15,    4)  1AX 2AX 3AA 5AB 7AA 
    *  13    0.035550  (   19,    0)  1AX 2AX 3AB 5AA 7AA 
    *  14    0.035530  (   10,    0)  1AX 2AB 3AX 5AA 6AA 
    *  15    0.029889  (    2,    5)  1AX 2AA 3AB 4AA 5AX 
    *  16   -0.029248  (    3,    4)  1AX 2AB 3AA 4AA 5AX 
    *  17   -0.025886  (    6,    0)  1AX 2AX 3AB 4AA 6AA 
    *  18    0.025862  (   17,    0)  1AX 2AB 3AX 4AA 7AA 
    *  19   -0.025793  (    4,    3)  2AX 3AX 4AX 5AA 
    *  20    0.023547  (    2,    0)  1AX 2AX 3AB 4AA 5AA 

		 "A good bug is a dead bug" 

			 - Starship Troopers

		 "I didn't write FORTRAN.  That's the problem."

			 - Edward Valeev

*** tstart() called on google.com
*** at Tue Sep 12 15:09:13 2017

   => Loading Basis Set <=

    Name: STO-3G
    Role: ORBITAL
    Keyword: BASIS
    atoms 1-7 entry H          line    18 file /usr/local/google/home/babbush/anaconda2/share/psi4/basis/sto-3g.gbs 


         ---------------------------------------------------------
                                   SCF
            by Justin Turney, Rob Parrish, and Andy Simmonett
                             ROHF Reference
                        1 Threads,   7629 MiB Core
         ---------------------------------------------------------

  ==> Geometry <==

    Molecular point group: c1
    Full point group: D7h

    Geometry (in Angstrom), charge = 0, multiplicity = 2:

       Center              X                  Y                   Z               Mass       
    ------------   -----------------  -----------------  -----------------  -----------------
           H          0.000000000000    -0.000000000000     0.854376337666     1.007825032070
           H          0.000000000000    -0.667978318663     0.532694933484     1.007825032070
           H          0.000000000000    -0.832955339098    -0.190116620608     1.007825032070
           H          0.000000000000    -0.370700000000    -0.769766481709     1.007825032070
           H          0.000000000000     0.370700000000    -0.769766481709     1.007825032070
           H          0.000000000000     0.832955339098    -0.190116620608     1.007825032070
           H          0.000000000000     0.667978318663     0.532694933484     1.007825032070

  Running in c1 symmetry.

  Rotational constants: A =      6.54704  B =      6.54704  C =      3.27352 [cm^-1]
  Rotational constants: A = 196275.27155  B = 196275.27155  C =  98137.63578 [MHz]
  Nuclear repulsion =    9.992555867629152

  Charge       = 0
  Multiplicity = 2
  Electrons    = 7
  Nalpha       = 4
  Nbeta        = 3

  ==> Algorithm <==

  SCF Algorithm Type is PK.
  DIIS enabled.
  MOM disabled.
  Fractional occupation disabled.
  Guess Type is GWH.
  Energy threshold   = 1.00e-06
  Density threshold  = 1.00e-06
  Integral threshold = 0.00e+00

  ==> Primary Basis <==

  Basis Set: STO-3G
    Blend: STO-3G
    Number of shells: 7
    Number of basis function: 7
    Number of Cartesian functions: 7
    Spherical Harmonics?: true
    Max angular momentum: 0

  ==> Pre-Iterations <==

   -------------------------------------------------------
    Irrep   Nso     Nmo     Nalpha   Nbeta   Ndocc  Nsocc
   -------------------------------------------------------
     A          7       7       0       0       0       0
   -------------------------------------------------------
    Total       7       7       4       3       3       1
   -------------------------------------------------------

  ==> Integral Setup <==

  Using in-core PK algorithm.
   Calculation information:
      Number of atoms:                   7
      Number of AO shells:               7
      Number of primitives:             21
      Number of atomic orbitals:         7
      Number of basis functions:         7

      Integral cutoff                 1.00e-12
      Number of threads:                 1

  Performing in-core PK
  Using 812 doubles for integral storage.
  We computed 406 shell quartets total.
  Whereas there are 406 unique shell quartets.
  ==> DiskJK: Disk-Based J/K Matrices <==

    J tasked:                  Yes
    K tasked:                  Yes
    wK tasked:                  No
    Memory (MB):              5722
    Schwarz Cutoff:          1E-12

    OpenMP threads:              1
  Minimum eigenvalue in the overlap matrix is 1.2569274931E-01.
  Using Symmetric Orthogonalization.

  SCF Guess: Generalized Wolfsberg-Helmholtz.

  ==> Iterations <==

                        Total Energy        Delta E     RMS |[F,P]|

   @ROHF iter   1:    -3.19987613250753   -3.19988e+00   4.18260e-03 
   @ROHF iter   2:    -3.20095069847985   -1.07457e-03   1.07306e-03 DIIS/DAMP
   @ROHF iter   3:    -3.20104760435138   -9.69059e-05   1.96726e-04 DIIS/DAMP
   @ROHF iter   4:    -3.20105131975622   -3.71540e-06   3.00611e-05 DIIS/DAMP
   @ROHF iter   5:    -3.20105137574915   -5.59929e-08   3.27324e-06 DIIS/DAMP
   @ROHF iter   6:    -3.20105137647689   -7.27740e-10   2.42506e-07 DIIS/DAMP

  ==> Post-Iterations <==

    Orbital Energies (a.u.)
    -----------------------

    Doubly Occupied:                                                      

       1A     -0.979508     2A     -0.592894     3A     -0.592647  

    Singly Occupied:                                                      

       4A      0.273786  

    Virtual:                                                              

       5A      0.474551     6A      1.595835     7A      1.595999  

    Final Occupation by Irrep:
              A 
    DOCC [     3 ]
    SOCC [     1 ]

  Energy converged.

  @ROHF Final Energy:    -3.20105137647689

   => Energetics <=

    Nuclear Repulsion Energy =              9.9925558676291519
    One-Electron Energy =                 -22.0798040937419700
    Two-Electron Energy =                   8.8861968496359296
    DFT Exchange-Correlation Energy =       0.0000000000000000
    Empirical Dispersion Energy =           0.0000000000000000
    PCM Polarization Energy =               0.0000000000000000
    EFP Energy =                            0.0000000000000000
    Total Energy =                         -3.2010513764768884



Properties will be evaluated at   0.000000,   0.000000,   0.000000 Bohr

Properties computed using the SCF density matrix

  Nuclear Dipole Moment: (a.u.)
     X:     0.0000      Y:     0.0000      Z:    -0.0000

  Electronic Dipole Moment: (a.u.)
     X:     0.0000      Y:    -0.0000      Z:     0.0006

  Dipole Moment: (a.u.)
     X:     0.0000      Y:    -0.0000      Z:     0.0006     Total:     0.0006

  Dipole Moment: (Debye)
     X:     0.0000      Y:    -0.0000      Z:     0.0016     Total:     0.0016


*** tstop() called on google.com at Tue Sep 12 15:09:14 2017
Module time:
	user time   =       0.10 seconds =       0.00 minutes
	system time =       0.01 seconds =       0.00 minutes
	total time  =          1 seconds =       0.02 minutes
Total time:
	user time   =       1.79 seconds =       0.03 minutes
	system time =       0.07 seconds =       0.00 minutes
	total time  =          2 seconds =       0.03 minutes
 MINTS: Wrapper to libmints.
   by Justin Turney

   Calculation information:
      Number of threads:                 1
      Number of atoms:                   7
      Number of AO shells:               7
      Number of SO shells:               7
      Number of primitives:             21
      Number of atomic orbitals:         7
      Number of basis functions:         7

      Number of irreps:                  1
      Integral cutoff                 0.00e+00
      Number of functions per irrep: [   7 ]

 OEINTS: Overlap, kinetic, potential, dipole, and quadrupole integrals
         stored in file 35.

      Computing two-electron integrals...done
      Computed 406 non-zero two-electron integrals.
        Stored in file 33.


*** tstart() called on google.com
*** at Tue Sep 12 15:09:14 2017


	Wfn Parameters:
	--------------------
	Wavefunction         = CCSD
	Number of irreps     = 1
	Number of MOs        = 7
	Number of active MOs = 7
	AO-Basis             = NONE
	Semicanonical        = false
	Reference            = ROHF
	Print Level          = 1

	IRREP	# MOs	# FZDC	# DOCC	# SOCC	# VIRT	# FZVR
	-----	-----	------	------	------	------	------
	 A	   7	    0	    3	    1	    3	    0
	Transforming integrals...
	IWL integrals will be deleted.
	(OO|OO)...
	Presorting SO-basis two-electron integrals.
	Sorting File: SO Ints (nn|nn) nbuckets = 1
	Transforming the one-electron integrals and constructing Fock matrices
	Starting first half-transformation.
	Sorting half-transformed integrals.
	First half integral transformation complete.
	Starting second half-transformation.
	Two-electron integral transformation complete.
	(OO|OV)...
	Starting second half-transformation.
	Two-electron integral transformation complete.
	(OO|VV)...
	Starting second half-transformation.
	Two-electron integral transformation complete.
	(OV|OO)...
	Starting first half-transformation.
	Sorting half-transformed integrals.
	First half integral transformation complete.
	Starting second half-transformation.
	Two-electron integral transformation complete.
	(OV|OV)...
	Starting second half-transformation.
	Two-electron integral transformation complete.
	(OV|VV)...
	Starting second half-transformation.
	Two-electron integral transformation complete.
	(VV|OO)...
	Starting first half-transformation.
	Sorting half-transformed integrals.
	First half integral transformation complete.
	Starting second half-transformation.
	Two-electron integral transformation complete.
	(VV|OV)...
	Starting second half-transformation.
	Two-electron integral transformation complete.
	(VV|VV)...
	Starting second half-transformation.
	Two-electron integral transformation complete.
	Frozen core energy     =      0.00000000000000

	Size of irrep 0 of <ab|cd> integrals:      0.000 (MW) /      0.002 (MB)
	Total:                                     0.000 (MW) /      0.002 (MB)

	Size of irrep 0 of <ia|bc> integrals:      0.000 (MW) /      0.002 (MB)
	Total:                                     0.000 (MW) /      0.002 (MB)

	Size of irrep 0 of tIjAb amplitudes:       0.000 (MW) /      0.002 (MB)
	Total:                                     0.000 (MW) /      0.002 (MB)

	Nuclear Rep. energy          =      9.99255586762915
	SCF energy                   =     -3.20105137647689
	One-electron energy          =    -22.07980409946297
	Two-electron (AA) energy     =      2.20245964814638
	Two-electron (BB) energy     =      1.06344505093846
	Two-electron (AB) energy     =      5.62029215626871
	Two-electron energy          =    -13.19360724410942
	Reference energy             =     -3.20105137648027

*** tstop() called on google.com at Tue Sep 12 15:09:14 2017
Module time:
	user time   =       0.00 seconds =       0.00 minutes
	system time =       0.01 seconds =       0.00 minutes
	total time  =          0 seconds =       0.00 minutes
Total time:
	user time   =       1.80 seconds =       0.03 minutes
	system time =       0.09 seconds =       0.00 minutes
	total time  =          2 seconds =       0.03 minutes

*** tstart() called on google.com
*** at Tue Sep 12 15:09:14 2017

            **************************
            *                        *
            *        CCENERGY        *
            *                        *
            **************************

    Nuclear Rep. energy (wfn)     =    9.992555867629152
    SCF energy          (wfn)     =   -3.201051376476888
    Reference energy    (file100) =   -3.201051376480267

    Input parameters:
    -----------------
    Wave function   =     CCSD
    Reference wfn   =     ROHF
    Brueckner       =     No
    Memory (Mbytes) =     8000.0
    Maxiter         =   1000000
    R_Convergence   =     1.0e-06
    E_Convergence   =     1.0e-06
    Restart         =     Yes
    DIIS            =     Yes
    AO Basis        =     NONE
    ABCD            =     NEW
    Cache Level     =     2
    Cache Type      =     LOW
    Print Level     =     1
    Num. of threads =     1
    # Amps to Print =     1000000
    Print MP2 Amps? =     No
    Analyze T2 Amps =     No
    Print Pair Ener =     No
    Local CC        =     No
    SCS-MP2         =     False
    SCSN-MP2        =     False
    SCS-CCSD        =     False

                Solving CC Amplitude Equations
                ------------------------------
  Iter             Energy              RMS        T1Diag      D1Diag    New D1Diag    D2Diag
  ----     ---------------------    ---------   ----------  ----------  ----------   --------
     0        -0.049661237606285    0.000e+00    0.000103    0.000261    0.000261    0.000000
     1        -0.059808869934071    3.508e-02    0.002638    0.004511    0.004853    0.000000
     2        -0.064123240747939    1.572e-02    0.005101    0.008536    0.009912    0.000000
     3        -0.064491970194999    4.837e-03    0.005889    0.009761    0.011679    0.000000
     4        -0.064525668996393    1.031e-03    0.005837    0.009627    0.011623    0.000000
     5        -0.064530428140691    2.200e-04    0.005808    0.009584    0.011554    0.000000
     6        -0.064533615975081    3.729e-05    0.005810    0.009589    0.011553    0.000000
     7        -0.064532885195175    1.098e-05    0.005811    0.009592    0.011555    0.000000
     8        -0.064533056376370    2.437e-06    0.005811    0.009593    0.011556    0.000000
     9        -0.064533044952894    4.487e-07    0.005811    0.009593    0.011556    0.000000

    Iterations converged.


    Largest TIA Amplitudes:
              1   1        -0.0162627253
              2   2         0.0161968182
              0   1        -0.0107032599
              1   0        -0.0103221794
              3   2        -0.0013034824
              0   0        -0.0000591155
              2   1        -0.0000388730
              1   2        -0.0000387390
              3   1         0.0000031319
              0   2        -0.0000006182
              2   0        -0.0000003520
              3   0         0.0000001082

    Largest Tia Amplitudes:
              1   0         0.0285276858
              1   1         0.0222868233
              2   2        -0.0222094151
              2   3        -0.0163422218
              0   1         0.0127364375
              1   2         0.0000532063
              2   1         0.0000531903
              0   0         0.0000081561
              2   0         0.0000009569
              0   2         0.0000007360
              1   3         0.0000005763
              0   3         0.0000003465

    Largest TIJAB Amplitudes:
      3   2   1   0        -0.0255020858
      3   1   2   0        -0.0254465306
      2   1   2   1        -0.0094275668
      3   0   2   0         0.0090010155
      2   0   2   0        -0.0057278238
      1   0   1   0        -0.0054758730
      2   1   2   0         0.0007052965
      2   0   2   1         0.0003147711
      3   1   2   1        -0.0001802614
      3   1   1   0         0.0000609652
      3   2   2   0        -0.0000608541
      3   0   2   1         0.0000084764
      2   1   1   0        -0.0000016674
      1   0   2   1        -0.0000007353
      3   0   1   0        -0.0000005199
      1   0   2   0        -0.0000001393
      2   0   1   0         0.0000001304

    Largest Tijab Amplitudes:
      2   1   3   0        -0.0556649115
      2   0   2   0        -0.0081843657
      1   0   1   0        -0.0077283612
      2   1   2   1        -0.0071941689
      1   0   3   2         0.0069272065
      2   0   3   1        -0.0064872030
      2   1   2   0         0.0006220853
      2   1   3   1         0.0004597202
      2   0   2   1         0.0002077605
      2   0   3   0        -0.0000286920
      2   1   1   0        -0.0000014773
      2   1   3   2         0.0000010770
      1   0   2   1        -0.0000004878
      2   0   1   0         0.0000002096
      1   0   3   1        -0.0000001859
      1   0   2   0        -0.0000001746
      2   0   3   2        -0.0000001381
      1   0   3   0         0.0000000643

    Largest TIjAb Amplitudes:
      2   2   0   0        -0.0636711955
      1   1   0   0        -0.0626960343
      3   1   1   3         0.0382397162
      3   2   2   3        -0.0381082543
      3   1   0   3         0.0374415777
      3   2   1   0        -0.0373119588
      3   1   2   0        -0.0372520310
      3   2   0   0         0.0360484842
      1   2   0   3        -0.0286761697
      2   1   0   3         0.0277469842
      0   0   0   0        -0.0256179884
      3   0   1   3         0.0234772472
      3   0   2   0         0.0224169628
      0   1   0   1        -0.0206753166
      0   2   0   2        -0.0206132647
      2   0   2   0        -0.0197701187
      1   0   1   0        -0.0192723425
      1   0   2   3        -0.0169245917
      2   2   2   2        -0.0168708298
      1   1   1   1        -0.0167147688
      2   0   1   3         0.0164526691
      1   1   2   2        -0.0159058226
      2   2   1   1        -0.0156954646
      0   2   2   0        -0.0143863718
      0   1   1   0        -0.0140411447
      3   0   0   2         0.0134165325
      1   2   2   0         0.0127980027
      2   1   2   0         0.0126087312
      2   0   0   2        -0.0121209973
      3   1   0   2        -0.0119014595
      3   2   0   1        -0.0118424960
      1   0   0   1        -0.0117497763
      2   1   0   2         0.0111413994
      2   2   0   1         0.0110956553
      0   0   2   2        -0.0109869004
      1   1   0   1        -0.0108823317
      0   0   1   1        -0.0108718549
      1   2   0   2         0.0108437463
      2   2   1   0         0.0108173472
      2   1   1   3         0.0100548945
      0   1   2   3        -0.0100548544
      1   2   1   3         0.0098593154
      0   2   1   3         0.0097402333
      3   2   1   1        -0.0091234530
      3   1   1   2         0.0091013903
      1   1   1   0        -0.0090588314
      3   2   2   2         0.0090221808
      3   1   2   1         0.0088636832
      1   0   2   2         0.0081727737
      2   0   1   2         0.0081305782
      1   1   2   3         0.0080438547
      0   2   2   1         0.0080197628
      0   1   2   2         0.0080029949
      0   1   1   1        -0.0078869522
      0   2   1   2         0.0078006166
      1   0   1   1        -0.0077728242
      2   0   2   1         0.0077193518
      2   2   2   3        -0.0063281911
      2   1   2   1        -0.0055846934
      1   2   1   2        -0.0053652542
      1   2   2   1         0.0038785829
      2   1   1   2         0.0036181276
      1   0   0   0         0.0004563317
      2   0   0   3         0.0004371649
      0   2   0   3         0.0001923454
      0   1   0   0         0.0001855012
      3   2   1   3         0.0000913969
      3   1   2   3         0.0000911617
      3   1   1   0         0.0000892431
      3   2   2   0        -0.0000890472
      3   0   2   1         0.0000737584
      3   0   0   3         0.0000550437
      3   0   1   2         0.0000369135
      2   2   2   0         0.0000327131
      0   0   2   3        -0.0000326664
      0   0   1   0        -0.0000308522
      1   1   2   0        -0.0000285687
      3   1   0   1         0.0000284789
      3   2   0   2        -0.0000282946
      2   1   0   1        -0.0000270008
      2   2   0   2         0.0000269046
      1   1   0   2        -0.0000263985
      1   2   0   1        -0.0000262972
      1   1   1   3        -0.0000260077
      1   2   1   0        -0.0000244776
      2   1   1   0        -0.0000240355
      2   2   1   3         0.0000219606
      1   0   1   2        -0.0000200015
      2   0   2   2         0.0000198738
      0   1   2   1        -0.0000197185
      0   2   2   2         0.0000195001
      0   2   1   1        -0.0000192298
      0   1   1   2        -0.0000192051
      1   0   2   1        -0.0000190453
      2   0   1   1        -0.0000189421
      2   1   2   3         0.0000178167
      1   2   2   3         0.0000173506
      0   0   0   1         0.0000018769
      3   0   2   3         0.0000013560
      3   0   1   0        -0.0000012936
      3   2   0   3         0.0000012615
      3   1   0   0        -0.0000012139
      2   0   0   0         0.0000010638
      1   0   0   3        -0.0000010217
      3   2   2   1        -0.0000009528
      3   2   1   2        -0.0000009435
      2   1   1   1         0.0000009338
      2   1   2   2        -0.0000009165
      1   2   1   1         0.0000009064
      1   2   2   2        -0.0000008883
      1   1   1   2         0.0000008674
      1   1   2   1         0.0000008541
      2   2   1   2        -0.0000008369
      2   2   2   1        -0.0000008230
      3   0   0   1        -0.0000007756
      3   1   2   2         0.0000005326
      3   1   1   1        -0.0000005277
      0   2   0   1         0.0000005015
      2   0   1   0         0.0000005008
      0   1   0   2        -0.0000004915
      0   1   0   3        -0.0000004669
      1   0   2   0        -0.0000004430
      1   0   1   3         0.0000004159
      0   2   0   0         0.0000004144
      2   0   2   3         0.0000003902
      0   2   1   0         0.0000003800
      0   1   2   0        -0.0000003064
      2   0   0   1         0.0000003057
      1   0   0   2        -0.0000002689
      0   2   2   3         0.0000002457
      0   1   1   3         0.0000002328
      3   0   2   2         0.0000001971
      0   0   2   0        -0.0000000872
      3   0   1   1        -0.0000000688
      0   0   1   3         0.0000000610
      3   0   0   0         0.0000000559
      1   1   0   3         0.0000000534
      2   2   0   3        -0.0000000420
      2   1   0   0         0.0000000151

    SCF energy       (wfn)                    =   -3.201051376476888
    Reference energy (file100)                =   -3.201051376480267

    Opposite-spin CCSD correlation energy     =   -0.050678209001161
    Same-spin CCSD correlation energy         =   -0.010046401694603
    CCSD correlation energy                   =   -0.064533044952894
      * CCSD total energy                     =   -3.265584421433161


*** tstop() called on google.com at Tue Sep 12 15:09:14 2017
Module time:
	user time   =       0.73 seconds =       0.01 minutes
	system time =       0.05 seconds =       0.00 minutes
	total time  =          0 seconds =       0.00 minutes
Total time:
	user time   =       2.53 seconds =       0.04 minutes
	system time =       0.14 seconds =       0.00 minutes
	total time  =          2 seconds =       0.03 minutes

*** Psi4 exiting successfully. Buy a developer a beer!
