
    -----------------------------------------------------------------------
          Psi4: An Open-Source Ab Initio Electronic Structure Package
                               Psi4 1.1 release

                         Git: Rev {HEAD} add49b9 


    R. M. Parrish, L. A. Burns, D. G. A. Smith, A. C. Simmonett,
    A. E. DePrince III, E. G. Hohenstein, U. Bozkaya, A. Yu. Sokolov,
    R. Di Remigio, R. M. Richard, J. F. Gonthier, A. M. James,
    H. R. McAlexander, A. Kumar, M. Saitow, X. Wang, B. P. Pritchard,
    P. Verma, H. F. Schaefer III, K. Patkowski, R. A. King, E. F. Valeev,
    F. A. Evangelista, J. M. Turney, T. D. Crawford, and C. D. Sherrill,
    J. Chem. Theory Comput. in press (2017).
    (doi: 10.1021/acs.jctc.7b00174)

    -----------------------------------------------------------------------


    Psi4 started on: Tuesday, 12 September 2017 03:09PM

    Process ID: 182880
    PSIDATADIR: /usr/local/google/home/babbush/anaconda2/share/psi4
    Memory:     500.0 MiB
    Threads:    1
    
  ==> Input File <==

--------------------------------------------------------------------------
"""This is a template for psi4 input format."""
import numpy
import sys

from openfermion.config import *
from openfermion.ops._interaction_tensor import (one_body_basis_change,
                                                 two_body_basis_change)
from openfermion.utils import MolecularData
from numpy import array

sys.path.append('/usr/local/google/home/babbush/Desktop/FermiLib-Plugin-Psi4/openfermionpsi4')
from _psi4_conversion_functions import *


# Set memory that job can use in megabytes.
memory 8000 mb

# Initialize molecular data.
_description = 'ring_0.7414'
if _description == 'None':
    _description = None
molecule = MolecularData([('H', (0.96868578215934531, 0.0, 0.0)), ('H', (0.68496428540386789, 0.68496428540386778, 0.0)), ('H', (5.9314897125049619e-17, 0.96868578215934531, 0.0)), ('H', (-0.68496428540386778, 0.68496428540386789, 0.0)), ('H', (-0.96868578215934531, 1.1862979425009924e-16, 0.0)), ('H', (-0.684964285403868, -0.68496428540386778, 0.0)), ('H', (-1.7794469137514887e-16, -0.96868578215934531, 0.0)), ('H', (0.68496428540386767, -0.684964285403868, 0.0))],
                         'sto-3g',
                         1,
                         0,
                         _description,
                          filename='/usr/local/google/home/babbush/Desktop/OpenFermion/src/openfermion/data/H8_sto-3g_singlet_ring_0.7414')

# Set molecular geometry and symmetry.
molecule mol {
H 0.968685782159 0.0 0.0
H 0.684964285404 0.684964285404 0.0
H 5.9314897125e-17 0.968685782159 0.0
H -0.684964285404 0.684964285404 0.0
H -0.968685782159 1.1862979425e-16 0.0
H -0.684964285404 -0.684964285404 0.0
H -1.77944691375e-16 -0.968685782159 0.0
H 0.684964285404 -0.684964285404 0.0
symmetry c1
}
mol.set_multiplicity(1)
mol.set_molecular_charge(0)

# Set reference and guess.
if molecule.multiplicity == 1:
    set reference rhf
    set guess sad
else:
    set reference rohf
    set guess gwh

# Set global parameters of calculation.
set globals {
    basis sto-3g
    freeze_core false
    fail_on_maxiter true
    df_scf_guess false
    opdm true
    tpdm true
    soscf false
    scf_type pk
    maxiter 1e6
    num_amps_print 1e6
    r_convergence 1e-6
    d_convergence 1e-6
    e_convergence 1e-6
    ints_tolerance EQUALITY_TOLERANCE
    damping_percentage 0
}

# Run self-consistent field (SCF) calculation.
if 1:
    try:
        hf_energy, hf_wavefunction = energy('scf', return_wfn=True)
        if 1:
            print('Hartree-Fock energy for {} ({} electrons) is {}.'.format(
                molecule.name, molecule.n_electrons, hf_energy))
    except:
        if 1:
            print('WARNING: SCF calculation failed.')
        else:
            raise
    else:
        # Get orbitals and Fock matrix.
        molecule.hf_energy = hf_energy
        molecule.nuclear_repulsion = mol.nuclear_repulsion_energy()
        molecule.canonical_orbitals = numpy.asarray(hf_wavefunction.Ca())
        molecule.n_orbitals = molecule.canonical_orbitals.shape[0]
        molecule.n_qubits = 2 * molecule.n_orbitals
        molecule.orbital_energies = numpy.asarray(hf_wavefunction.epsilon_a())
        molecule.fock_matrix = numpy.asarray(hf_wavefunction.Fa())

        # Get integrals using MintsHelper.
        mints = MintsHelper(hf_wavefunction.basisset())
        molecule.one_body_integrals = one_body_basis_change(
            numpy.asarray(mints.ao_kinetic()), molecule.canonical_orbitals)
        molecule.one_body_integrals += one_body_basis_change(
            numpy.asarray(mints.ao_potential()), molecule.canonical_orbitals)
        two_body_integrals = numpy.asarray(mints.ao_eri())
        two_body_integrals.reshape((molecule.n_orbitals, molecule.n_orbitals,
                                    molecule.n_orbitals, molecule.n_orbitals))
        two_body_integrals = numpy.einsum('psqr', two_body_integrals)
        two_body_integrals = two_body_basis_change(
            two_body_integrals, molecule.canonical_orbitals)
        molecule.two_body_integrals = two_body_integrals
        molecule.save()


# Perform MP2 energy calculation if there are at least two electrons.
if 1:
    try:
        assert molecule.n_electrons > 1
        mp2_energy = energy('mp2')
        if 1:
            print('MP2 energy for {} ({} electrons) is {}.'.format(
                molecule.name, molecule.n_electrons, mp2_energy))
    except:
        if 1:
            print('WARNING: MP2 calculation failed.')
        else:
            raise
    else:
        molecule.mp2_energy = mp2_energy
        molecule.save()


# Perform configuration interaction singles and doubles (CISD) calculation.
if 1:
    set qc_module detci
    try:
        cisd_energy, cisd_wavefunction = energy('cisd', return_wfn=True)
        if 1:
            print('CISD energy for {} ({} electrons) is {}.'.format(
                molecule.name, molecule.n_electrons, cisd_energy))
    except:
        if 1:
            print('WARNING: CISD calculation failed.')
        else:
            raise
    else:
        # For the functions below, "a" and "b" refer to "up and "down" spins.
        molecule.cisd_energy = cisd_energy

        # Get 1-RDM from CISD calculation.
        cisd_one_rdm_a = numpy.array(cisd_wavefunction.get_opdm(
            0, 0, 'A', True)).reshape(molecule.n_orbitals, molecule.n_orbitals)
        cisd_one_rdm_b = numpy.array(cisd_wavefunction.get_opdm(
            0, 0, 'B', True)).reshape(molecule.n_orbitals, molecule.n_orbitals)

        # Get 2-RDM from CISD calculation.
        cisd_two_rdm_aa = numpy.array(cisd_wavefunction.get_tpdm(
            'AA', False)).reshape(molecule.n_orbitals, molecule.n_orbitals,
                                  molecule.n_orbitals, molecule.n_orbitals)
        cisd_two_rdm_ab = numpy.array(cisd_wavefunction.get_tpdm(
            'AB', False)).reshape(molecule.n_orbitals, molecule.n_orbitals,
                                  molecule.n_orbitals, molecule.n_orbitals)
        cisd_two_rdm_bb = numpy.array(cisd_wavefunction.get_tpdm(
            'BB', False)).reshape(molecule.n_orbitals, molecule.n_orbitals,
                                  molecule.n_orbitals, molecule.n_orbitals)

        # Get overall RDMs.
        cisd_one_rdm, cisd_two_rdm = unpack_spatial_rdm(
            cisd_one_rdm_a, cisd_one_rdm_b, cisd_two_rdm_aa,
            cisd_two_rdm_ab, cisd_two_rdm_bb)

        # Store 1-RDM in molecule file, 2-RDM separately in other file.
        molecule.cisd_one_rdm = cisd_one_rdm
        molecule.cisd_two_rdm = cisd_two_rdm
        molecule.save()


# Perform exact diagonalization.
if 1:
    set qc_module detci
    try:
        fci_energy, fci_wavefunction = energy('fci', return_wfn=True)
        if 1:
            print('FCI energy for {} ({} electrons) is {}.'.format(
                molecule.name, molecule.n_electrons, fci_energy))
    except:
        if 1:
            print('WARNING: FCI calculation failed.')
        else:
            raise
    else:
        # For the functions below, "a" and "b" refer to "up and "down" spins.
        molecule.fci_energy = fci_energy

        # Get 1-RDM from FCI calculation.
        fci_one_rdm_a = numpy.array(fci_wavefunction.get_opdm(
            0, 0, 'A', True)).reshape(molecule.n_orbitals, molecule.n_orbitals)
        fci_one_rdm_b = numpy.array(fci_wavefunction.get_opdm(
            0, 0, 'B', True)).reshape(molecule.n_orbitals, molecule.n_orbitals)

        # Get 2-RDM from FCI calculation.
        fci_two_rdm_aa = numpy.array(fci_wavefunction.get_tpdm(
            'AA', False)).reshape(molecule.n_orbitals, molecule.n_orbitals,
                                  molecule.n_orbitals, molecule.n_orbitals)
        fci_two_rdm_ab = numpy.array(fci_wavefunction.get_tpdm(
            'AB', False)).reshape(molecule.n_orbitals, molecule.n_orbitals,
                                  molecule.n_orbitals, molecule.n_orbitals)
        fci_two_rdm_bb = numpy.array(fci_wavefunction.get_tpdm(
            'BB', False)).reshape(molecule.n_orbitals, molecule.n_orbitals,
                                  molecule.n_orbitals, molecule.n_orbitals)

        # Get overall RDMs.
        fci_one_rdm, fci_two_rdm = unpack_spatial_rdm(
            fci_one_rdm_a, fci_one_rdm_b,
            fci_two_rdm_aa, fci_two_rdm_ab, fci_two_rdm_bb)

        # Store 1-RDM in molecule file, 2-RDM separately in other file.
        molecule.fci_one_rdm = fci_one_rdm
        molecule.fci_two_rdm = fci_two_rdm
        molecule.save()


# Perform coupled cluster singles and doubles (CCSD) calculation.
if 1:
    set qc_module ccenergy
    try:
        ccsd_energy = energy('ccsd')
        if 1:
            print('CCSD energy for {} ({} electrons) is {}.'.format(
                molecule.name, molecule.n_electrons, ccsd_energy))
    except:
        if 1:
            print('WARNING: CCSD calculation failed.')
        else:
            raise
    else:
        molecule.ccsd_energy = ccsd_energy

        # Merge CC amplitudes into molecule by parsing
        psi_filename = outfile_name()
        single_cc_amplitudes, double_cc_amplitudes = (
            parse_psi4_ccsd_amplitudes(
                2 * molecule.n_orbitals,
                molecule.get_n_alpha_electrons(),
                molecule.get_n_beta_electrons(),
                psi_filename))

        molecule.ccsd_single_amps = single_cc_amplitudes
        molecule.ccsd_double_amps = double_cc_amplitudes
        molecule.save()
--------------------------------------------------------------------------

  Memory set to   7.451 GiB by Python driver.

*** tstart() called on google.com
*** at Tue Sep 12 15:09:15 2017

   => Loading Basis Set <=

    Name: STO-3G
    Role: ORBITAL
    Keyword: BASIS
    atoms 1-8 entry H          line    18 file /usr/local/google/home/babbush/anaconda2/share/psi4/basis/sto-3g.gbs 


         ---------------------------------------------------------
                                   SCF
            by Justin Turney, Rob Parrish, and Andy Simmonett
                              RHF Reference
                        1 Threads,   7629 MiB Core
         ---------------------------------------------------------

  ==> Geometry <==

    Molecular point group: c1
    Full point group: D8h

    Geometry (in Angstrom), charge = 0, multiplicity = 1:

       Center              X                  Y                   Z               Mass       
    ------------   -----------------  -----------------  -----------------  -----------------
           H          0.968685782159     0.000000000000     0.000000000000     1.007825032070
           H          0.684964285404     0.684964285404     0.000000000000     1.007825032070
           H          0.000000000000     0.968685782159     0.000000000000     1.007825032070
           H         -0.684964285404     0.684964285404     0.000000000000     1.007825032070
           H         -0.968685782159     0.000000000000     0.000000000000     1.007825032070
           H         -0.684964285404    -0.684964285404     0.000000000000     1.007825032070
           H         -0.000000000000    -0.968685782159     0.000000000000     1.007825032070
           H          0.684964285404    -0.684964285404     0.000000000000     1.007825032070

  Running in c1 symmetry.

  Rotational constants: A =      4.45641  B =      4.45641  C =      2.22821 [cm^-1]
  Rotational constants: A = 133599.92452  B = 133599.92452  C =  66799.96226 [MHz]
  Nuclear repulsion =   12.258018906050880

  Charge       = 0
  Multiplicity = 1
  Electrons    = 8
  Nalpha       = 4
  Nbeta        = 4

  ==> Algorithm <==

  SCF Algorithm Type is PK.
  DIIS enabled.
  MOM disabled.
  Fractional occupation disabled.
  Guess Type is SAD.
  Energy threshold   = 1.00e-06
  Density threshold  = 1.00e-06
  Integral threshold = 0.00e+00

  ==> Primary Basis <==

  Basis Set: STO-3G
    Blend: STO-3G
    Number of shells: 8
    Number of basis function: 8
    Number of Cartesian functions: 8
    Spherical Harmonics?: true
    Max angular momentum: 0

  ==> Pre-Iterations <==

   -------------------------------------------------------
    Irrep   Nso     Nmo     Nalpha   Nbeta   Ndocc  Nsocc
   -------------------------------------------------------
     A          8       8       0       0       0       0
   -------------------------------------------------------
    Total       8       8       4       4       4       0
   -------------------------------------------------------

  ==> Integral Setup <==

  Using in-core PK algorithm.
   Calculation information:
      Number of atoms:                   8
      Number of AO shells:               8
      Number of primitives:             24
      Number of atomic orbitals:         8
      Number of basis functions:         8

      Integral cutoff                 1.00e-12
      Number of threads:                 1

  Performing in-core PK
  Using 1332 doubles for integral storage.
  We computed 666 shell quartets total.
  Whereas there are 666 unique shell quartets.
  ==> DiskJK: Disk-Based J/K Matrices <==

    J tasked:                  Yes
    K tasked:                  Yes
    wK tasked:                  No
    Memory (MB):              5722
    Schwarz Cutoff:          1E-12

    OpenMP threads:              1
  Minimum eigenvalue in the overlap matrix is 9.7247953543E-02.
  Using Symmetric Orthogonalization.

  SCF Guess: Superposition of Atomic Densities via on-the-fly atomic UHF.

  ==> Iterations <==

                        Total Energy        Delta E     RMS |[F,P]|

   @RHF iter   0:    -3.92595903456755   -3.92596e+00   4.54438e-14 
   @RHF iter   1:    -3.62934355814997    2.96615e-01   7.65438e-03 
   @RHF iter   2:    -3.63174015966032   -2.39660e-03   1.51089e-03 DIIS/DAMP
   @RHF iter   3:    -3.63183585162679   -9.56920e-05   3.46964e-05 DIIS/DAMP
   @RHF iter   4:    -3.63183589142991   -3.98031e-08   5.90817e-06 DIIS/DAMP
   @RHF iter   5:    -3.63183584463951    4.67904e-08   6.78810e-08 DIIS/DAMP

  ==> Post-Iterations <==

    Orbital Energies (a.u.)
    -----------------------

    Doubly Occupied:                                                      

       1A     -0.968199     2A     -0.668256     3A     -0.668256  
       4A     -0.098519  

    Virtual:                                                              

       5A      0.254318     6A      1.194733     7A      1.194733  
       8A      2.010186  

    Final Occupation by Irrep:
              A 
    DOCC [     4 ]

  Energy converged.

  @RHF Final Energy:    -3.63183584463951

   => Energetics <=

    Nuclear Repulsion Energy =             12.2580189060508804
    One-Electron Energy =                 -26.9732498150005213
    Two-Electron Energy =                  11.0833950643101353
    DFT Exchange-Correlation Energy =       0.0000000000000000
    Empirical Dispersion Energy =           0.0000000000000000
    PCM Polarization Energy =               0.0000000000000000
    EFP Energy =                            0.0000000000000000
    Total Energy =                         -3.6318358446395056



Properties will be evaluated at   0.000000,   0.000000,   0.000000 Bohr

Properties computed using the SCF density matrix

  Nuclear Dipole Moment: (a.u.)
     X:    -0.0000      Y:     0.0000      Z:     0.0000

  Electronic Dipole Moment: (a.u.)
     X:     0.0000      Y:     0.0000      Z:     0.0000

  Dipole Moment: (a.u.)
     X:     0.0000      Y:     0.0000      Z:     0.0000     Total:     0.0000

  Dipole Moment: (Debye)
     X:     0.0000      Y:     0.0000      Z:     0.0000     Total:     0.0000


*** tstop() called on google.com at Tue Sep 12 15:09:15 2017
Module time:
	user time   =       0.43 seconds =       0.01 minutes
	system time =       0.00 seconds =       0.00 minutes
	total time  =          0 seconds =       0.00 minutes
Total time:
	user time   =       0.43 seconds =       0.01 minutes
	system time =       0.00 seconds =       0.00 minutes
	total time  =          0 seconds =       0.00 minutes

*** tstart() called on google.com
*** at Tue Sep 12 15:09:16 2017

   => Loading Basis Set <=

    Name: STO-3G
    Role: ORBITAL
    Keyword: BASIS
    atoms 1-8 entry H          line    18 file /usr/local/google/home/babbush/anaconda2/share/psi4/basis/sto-3g.gbs 


         ---------------------------------------------------------
                                   SCF
            by Justin Turney, Rob Parrish, and Andy Simmonett
                              RHF Reference
                        1 Threads,   7629 MiB Core
         ---------------------------------------------------------

  ==> Geometry <==

    Molecular point group: c1
    Full point group: D8h

    Geometry (in Angstrom), charge = 0, multiplicity = 1:

       Center              X                  Y                   Z               Mass       
    ------------   -----------------  -----------------  -----------------  -----------------
           H          0.968685782159     0.000000000000     0.000000000000     1.007825032070
           H          0.684964285404     0.684964285404     0.000000000000     1.007825032070
           H          0.000000000000     0.968685782159     0.000000000000     1.007825032070
           H         -0.684964285404     0.684964285404     0.000000000000     1.007825032070
           H         -0.968685782159     0.000000000000     0.000000000000     1.007825032070
           H         -0.684964285404    -0.684964285404     0.000000000000     1.007825032070
           H         -0.000000000000    -0.968685782159     0.000000000000     1.007825032070
           H          0.684964285404    -0.684964285404     0.000000000000     1.007825032070

  Running in c1 symmetry.

  Rotational constants: A =      4.45641  B =      4.45641  C =      2.22821 [cm^-1]
  Rotational constants: A = 133599.92452  B = 133599.92452  C =  66799.96226 [MHz]
  Nuclear repulsion =   12.258018906050880

  Charge       = 0
  Multiplicity = 1
  Electrons    = 8
  Nalpha       = 4
  Nbeta        = 4

  ==> Algorithm <==

  SCF Algorithm Type is PK.
  DIIS enabled.
  MOM disabled.
  Fractional occupation disabled.
  Guess Type is SAD.
  Energy threshold   = 1.00e-06
  Density threshold  = 1.00e-06
  Integral threshold = 0.00e+00

  ==> Primary Basis <==

  Basis Set: STO-3G
    Blend: STO-3G
    Number of shells: 8
    Number of basis function: 8
    Number of Cartesian functions: 8
    Spherical Harmonics?: true
    Max angular momentum: 0

  ==> Pre-Iterations <==

   -------------------------------------------------------
    Irrep   Nso     Nmo     Nalpha   Nbeta   Ndocc  Nsocc
   -------------------------------------------------------
     A          8       8       0       0       0       0
   -------------------------------------------------------
    Total       8       8       4       4       4       0
   -------------------------------------------------------

  ==> Integral Setup <==

  Using in-core PK algorithm.
   Calculation information:
      Number of atoms:                   8
      Number of AO shells:               8
      Number of primitives:             24
      Number of atomic orbitals:         8
      Number of basis functions:         8

      Integral cutoff                 1.00e-12
      Number of threads:                 1

  Performing in-core PK
  Using 1332 doubles for integral storage.
  We computed 666 shell quartets total.
  Whereas there are 666 unique shell quartets.
  ==> DiskJK: Disk-Based J/K Matrices <==

    J tasked:                  Yes
    K tasked:                  Yes
    wK tasked:                  No
    Memory (MB):              5722
    Schwarz Cutoff:          1E-12

    OpenMP threads:              1
  Minimum eigenvalue in the overlap matrix is 9.7247953543E-02.
  Using Symmetric Orthogonalization.

  SCF Guess: Superposition of Atomic Densities via on-the-fly atomic UHF.

  ==> Iterations <==

                        Total Energy        Delta E     RMS |[F,P]|

   @RHF iter   0:    -3.92595903456755   -3.92596e+00   4.54438e-14 
   @RHF iter   1:    -3.62934355814997    2.96615e-01   7.65438e-03 
   @RHF iter   2:    -3.63174015966032   -2.39660e-03   1.51089e-03 DIIS/DAMP
   @RHF iter   3:    -3.63183585162679   -9.56920e-05   3.46964e-05 DIIS/DAMP
   @RHF iter   4:    -3.63183589142991   -3.98031e-08   5.90817e-06 DIIS/DAMP
   @RHF iter   5:    -3.63183584463950    4.67904e-08   6.78810e-08 DIIS/DAMP

  ==> Post-Iterations <==

    Orbital Energies (a.u.)
    -----------------------

    Doubly Occupied:                                                      

       1A     -0.968199     2A     -0.668256     3A     -0.668256  
       4A     -0.098519  

    Virtual:                                                              

       5A      0.254318     6A      1.194733     7A      1.194733  
       8A      2.010186  

    Final Occupation by Irrep:
              A 
    DOCC [     4 ]

  Energy converged.

  @RHF Final Energy:    -3.63183584463950

   => Energetics <=

    Nuclear Repulsion Energy =             12.2580189060508804
    One-Electron Energy =                 -26.9732498150005284
    Two-Electron Energy =                  11.0833950643101478
    DFT Exchange-Correlation Energy =       0.0000000000000000
    Empirical Dispersion Energy =           0.0000000000000000
    PCM Polarization Energy =               0.0000000000000000
    EFP Energy =                            0.0000000000000000
    Total Energy =                         -3.6318358446395003



Properties will be evaluated at   0.000000,   0.000000,   0.000000 Bohr

Properties computed using the SCF density matrix

  Nuclear Dipole Moment: (a.u.)
     X:     0.0000      Y:     0.0000      Z:     0.0000

  Electronic Dipole Moment: (a.u.)
     X:     0.0000      Y:     0.0000      Z:     0.0000

  Dipole Moment: (a.u.)
     X:     0.0000      Y:     0.0000      Z:     0.0000     Total:     0.0000

  Dipole Moment: (Debye)
     X:     0.0000      Y:     0.0000      Z:     0.0000     Total:     0.0000


*** tstop() called on google.com at Tue Sep 12 15:09:16 2017
Module time:
	user time   =       0.35 seconds =       0.01 minutes
	system time =       0.01 seconds =       0.00 minutes
	total time  =          0 seconds =       0.00 minutes
Total time:
	user time   =       0.83 seconds =       0.01 minutes
	system time =       0.01 seconds =       0.00 minutes
	total time  =          1 seconds =       0.02 minutes

*** tstart() called on google.com
*** at Tue Sep 12 15:09:16 2017


  //>>>>>>>>>>>>>>>>>>>>>>>>>>>>>>>>>>>//
  //               DFMP2               //
  //<<<<<<<<<<<<<<<<<<<<<<<<<<<<<<<<<<<//

   => Loading Basis Set <=

    Name: (STO-3G AUX)
    Role: RIFIT
    Keyword: DF_BASIS_MP2
    atoms 1-8 entry H          line    23 file /usr/local/google/home/babbush/anaconda2/share/psi4/basis/def2-qzvpp-ri.gbs 

	 --------------------------------------------------------
	                          DF-MP2                         
	      2nd-Order Density-Fitted Moller-Plesset Theory     
	              RMP2 Wavefunction,   1 Threads             
	                                                         
	        Rob Parrish, Justin Turney, Andy Simmonett,      
	           Ed Hohenstein, and C. David Sherrill          
	 --------------------------------------------------------

   => Auxiliary Basis Set <=

  Basis Set: (STO-3G AUX)
    Blend: DEF2-QZVPP-RI
    Number of shells: 128
    Number of basis function: 448
    Number of Cartesian functions: 568
    Spherical Harmonics?: true
    Max angular momentum: 4

	 --------------------------------------------------------
	                 NBF =     8, NAUX =   448
	 --------------------------------------------------------
	   CLASS    FOCC     OCC    AOCC    AVIR     VIR    FVIR
	   PAIRS       0       4       4       4       4       0
	 --------------------------------------------------------

	-----------------------------------------------------------
	 ==================> DF-MP2 Energies <==================== 
	-----------------------------------------------------------
	 Reference Energy          =      -3.6318358446395007 [Eh]
	 Singles Energy            =      -0.0000000000050927 [Eh]
	 Same-Spin Energy          =      -0.0068775830488063 [Eh]
	 Opposite-Spin Energy      =      -0.0444043523431860 [Eh]
	 Correlation Energy        =      -0.0512819353970850 [Eh]
	 Total Energy              =      -3.6831177800365857 [Eh]
	-----------------------------------------------------------
	 ================> DF-SCS-MP2 Energies <================== 
	-----------------------------------------------------------
	 SCS Same-Spin Scale       =       0.3333333333333333 [-]
	 SCS Opposite-Spin Scale   =       1.2000000000000000 [-]
	 SCS Same-Spin Energy      =      -0.0022925276829354 [Eh]
	 SCS Opposite-Spin Energy  =      -0.0532852228118232 [Eh]
	 SCS Correlation Energy    =      -0.0555777504998513 [Eh]
	 SCS Total Energy          =      -3.6874135951393519 [Eh]
	-----------------------------------------------------------


*** tstop() called on google.com at Tue Sep 12 15:09:16 2017
Module time:
	user time   =       0.28 seconds =       0.00 minutes
	system time =       0.01 seconds =       0.00 minutes
	total time  =          0 seconds =       0.00 minutes
Total time:
	user time   =       1.11 seconds =       0.02 minutes
	system time =       0.02 seconds =       0.00 minutes
	total time  =          1 seconds =       0.02 minutes

*** tstart() called on google.com
*** at Tue Sep 12 15:09:16 2017

   => Loading Basis Set <=

    Name: STO-3G
    Role: ORBITAL
    Keyword: BASIS
    atoms 1-8 entry H          line    18 file /usr/local/google/home/babbush/anaconda2/share/psi4/basis/sto-3g.gbs 


         ---------------------------------------------------------
                                   SCF
            by Justin Turney, Rob Parrish, and Andy Simmonett
                              RHF Reference
                        1 Threads,   7629 MiB Core
         ---------------------------------------------------------

  ==> Geometry <==

    Molecular point group: c1
    Full point group: D8h

    Geometry (in Angstrom), charge = 0, multiplicity = 1:

       Center              X                  Y                   Z               Mass       
    ------------   -----------------  -----------------  -----------------  -----------------
           H          0.968685782159     0.000000000000     0.000000000000     1.007825032070
           H          0.684964285404     0.684964285404     0.000000000000     1.007825032070
           H          0.000000000000     0.968685782159     0.000000000000     1.007825032070
           H         -0.684964285404     0.684964285404     0.000000000000     1.007825032070
           H         -0.968685782159     0.000000000000     0.000000000000     1.007825032070
           H         -0.684964285404    -0.684964285404     0.000000000000     1.007825032070
           H         -0.000000000000    -0.968685782159     0.000000000000     1.007825032070
           H          0.684964285404    -0.684964285404     0.000000000000     1.007825032070

  Running in c1 symmetry.

  Rotational constants: A =      4.45641  B =      4.45641  C =      2.22821 [cm^-1]
  Rotational constants: A = 133599.92452  B = 133599.92452  C =  66799.96226 [MHz]
  Nuclear repulsion =   12.258018906050880

  Charge       = 0
  Multiplicity = 1
  Electrons    = 8
  Nalpha       = 4
  Nbeta        = 4

  ==> Algorithm <==

  SCF Algorithm Type is PK.
  DIIS enabled.
  MOM disabled.
  Fractional occupation disabled.
  Guess Type is SAD.
  Energy threshold   = 1.00e-06
  Density threshold  = 1.00e-06
  Integral threshold = 0.00e+00

  ==> Primary Basis <==

  Basis Set: STO-3G
    Blend: STO-3G
    Number of shells: 8
    Number of basis function: 8
    Number of Cartesian functions: 8
    Spherical Harmonics?: true
    Max angular momentum: 0

  ==> Pre-Iterations <==

   -------------------------------------------------------
    Irrep   Nso     Nmo     Nalpha   Nbeta   Ndocc  Nsocc
   -------------------------------------------------------
     A          8       8       0       0       0       0
   -------------------------------------------------------
    Total       8       8       4       4       4       0
   -------------------------------------------------------

  ==> Integral Setup <==

  Using in-core PK algorithm.
   Calculation information:
      Number of atoms:                   8
      Number of AO shells:               8
      Number of primitives:             24
      Number of atomic orbitals:         8
      Number of basis functions:         8

      Integral cutoff                 1.00e-12
      Number of threads:                 1

  Performing in-core PK
  Using 1332 doubles for integral storage.
  We computed 666 shell quartets total.
  Whereas there are 666 unique shell quartets.
  ==> DiskJK: Disk-Based J/K Matrices <==

    J tasked:                  Yes
    K tasked:                  Yes
    wK tasked:                  No
    Memory (MB):              5722
    Schwarz Cutoff:          1E-12

    OpenMP threads:              1
  Minimum eigenvalue in the overlap matrix is 9.7247953543E-02.
  Using Symmetric Orthogonalization.

  SCF Guess: Superposition of Atomic Densities via on-the-fly atomic UHF.

  ==> Iterations <==

                        Total Energy        Delta E     RMS |[F,P]|

   @RHF iter   0:    -3.92595903456755   -3.92596e+00   4.54438e-14 
   @RHF iter   1:    -3.62934355814997    2.96615e-01   7.65438e-03 
   @RHF iter   2:    -3.63174015966032   -2.39660e-03   1.51089e-03 DIIS/DAMP
   @RHF iter   3:    -3.63183585162679   -9.56920e-05   3.46964e-05 DIIS/DAMP
   @RHF iter   4:    -3.63183589142991   -3.98031e-08   5.90817e-06 DIIS/DAMP
   @RHF iter   5:    -3.63183584463950    4.67904e-08   6.78810e-08 DIIS/DAMP

  ==> Post-Iterations <==

    Orbital Energies (a.u.)
    -----------------------

    Doubly Occupied:                                                      

       1A     -0.968199     2A     -0.668256     3A     -0.668256  
       4A     -0.098519  

    Virtual:                                                              

       5A      0.254318     6A      1.194733     7A      1.194733  
       8A      2.010186  

    Final Occupation by Irrep:
              A 
    DOCC [     4 ]

  Energy converged.

  @RHF Final Energy:    -3.63183584463950

   => Energetics <=

    Nuclear Repulsion Energy =             12.2580189060508804
    One-Electron Energy =                 -26.9732498150005284
    Two-Electron Energy =                  11.0833950643101478
    DFT Exchange-Correlation Energy =       0.0000000000000000
    Empirical Dispersion Energy =           0.0000000000000000
    PCM Polarization Energy =               0.0000000000000000
    EFP Energy =                            0.0000000000000000
    Total Energy =                         -3.6318358446395003



Properties will be evaluated at   0.000000,   0.000000,   0.000000 Bohr

Properties computed using the SCF density matrix

  Nuclear Dipole Moment: (a.u.)
     X:     0.0000      Y:     0.0000      Z:     0.0000

  Electronic Dipole Moment: (a.u.)
     X:     0.0000      Y:     0.0000      Z:     0.0000

  Dipole Moment: (a.u.)
     X:     0.0000      Y:     0.0000      Z:     0.0000     Total:     0.0000

  Dipole Moment: (Debye)
     X:     0.0000      Y:     0.0000      Z:     0.0000     Total:     0.0000


*** tstop() called on google.com at Tue Sep 12 15:09:17 2017
Module time:
	user time   =       0.38 seconds =       0.01 minutes
	system time =       0.00 seconds =       0.00 minutes
	total time  =          1 seconds =       0.02 minutes
Total time:
	user time   =       1.54 seconds =       0.03 minutes
	system time =       0.02 seconds =       0.00 minutes
	total time  =          2 seconds =       0.03 minutes
 MINTS: Wrapper to libmints.
   by Justin Turney

   Calculation information:
      Number of threads:                 1
      Number of atoms:                   8
      Number of AO shells:               8
      Number of SO shells:               8
      Number of primitives:             24
      Number of atomic orbitals:         8
      Number of basis functions:         8

      Number of irreps:                  1
      Integral cutoff                 0.00e+00
      Number of functions per irrep: [   8 ]

 OEINTS: Overlap, kinetic, potential, dipole, and quadrupole integrals
         stored in file 35.

      Computing two-electron integrals...done
      Computed 666 non-zero two-electron integrals.
        Stored in file 33.


         ---------------------------------------------------------
                          Configuration Interaction
                            (a 'D E T C I' module)

                 C. David Sherrill, Daniel G. A. Smith, and
                              Matt L. Leininger
         ---------------------------------------------------------


   ==> Parameters <==

    EX LEVEL       =        2      H0 BLOCKSIZE  =     1000
    VAL EX LEVEL   =        0      H0 GUESS SIZE =     1000
    H0COUPLINGSIZE =        0      H0 COUPLING   =       NO
    MAXITER        =       24      NUM PRINT     =       20
    NUM ROOTS      =        1      ICORE         =        1
    PRINT LVL      =        1      FCI           =       NO
    R CONV         = 1.00e-06      MIXED         =      YES
    E CONV         = 1.00e-06      MIXED4        =      YES
    R4S            =       NO      REPL OTF      =       NO
    DIAG METHOD    =      SEM      FOLLOW ROOT   =        0
    PRECONDITIONER = DAVIDSON      UPDATE        = DAVIDSON
    S              =   0.0000      Ms0           =      YES
    GUESS VECTOR   =  H0BLOCK      OPENTYPE      =     NONE
    COLLAPSE SIZE  =        1      HD AVG        = EVANGELISTI
    MAX NUM VECS   =       25      REF SYM       =     AUTO
    IOPEN        =       NO

    EX ALLOW       =  1  1 
    STATE AVERAGE  =  0(1.00) 

   ==> CI Orbital and Space information <==

    RAS1 LVL      =        3      A RAS3 MAX    =        2
    RAS1 MIN      =        6      B RAS3 MAX    =        2
    A RAS1 LVL    =        3      RAS4 LVL      =        8
    A RAS1 MIN    =        2      A RAS4 MAX    =        0
    A RAS1 MAX    =        4      B RAS4 MAX    =        0
    B RAS1 LVL    =        3      RAS4 MAX      =        0
    B RAS1 MIN    =        2      A RAS34 MAX   =        2
    B RAS1 MAX    =        4      B RAS34 MAX   =        2
    RAS3 LVL      =        4      RAS34 MAX     =        2
    RAS3 MAX      =        2
   ------------------------------------
               Space    Total     A
   ------------------------------------
                 Nso        8     8
                 Nmo        8     8
               Ndocc        4     4
               Nsocc        0     0
   ------------------------------------
              CI Spaces
   ------------------------------------
        Dropped DOCC        0     0
                RAS1        4     4
                RAS2        0     0
                RAS3        4     4
                RAS4        0     0
      Active (total)        8     8
        Dropped UOCC        0     0
   ------------------------------------

   ==> Setting up CI strings <==

    There are 53 alpha and 53 beta strings
    The CI space requires 361 (3.61E+02) determinants and 6 blocks

   ==> Transforming CI integrals <==

	Presorting SO-basis two-electron integrals.
	Sorting File: SO Ints (nn|nn) nbuckets = 1
	Transforming the one-electron integrals and constructing Fock matrices
	Starting first half-transformation.
	Sorting half-transformed integrals.
	First half integral transformation complete.
	Starting second half-transformation.
	Two-electron integral transformation complete.

   ==> Starting CI iterations <==

    H0 Block Eigenvalue =  -3.74984149

    Simultaneous Expansion Method (Block Davidson Method)
    Using 1 initial trial vectors

     Iter   Root       Total Energy       Delta E      C RMS

   @CI  0:     0     -3.749841494942   -1.6008E+01   2.5643E-11  
    Warning: Norm of correction (root 0) is < 1.0E-13
   @CI  1:     0     -3.749841494942   0.0000E+00   1.6338E-10 c

   ==> Energetics <==

    SCF energy =           -3.631835844639500
    Total CI energy =      -3.749841494942226

   ==> CISD root 0 information <==

    CISD Root 0 energy =    -3.749841494942226

   The 20 most important determinants:

    *   1    0.693450  (    0,    1)  1AX 2AX 3AX 4AA 5AB 
    *   2    0.693450  (    1,    0)  1AX 2AX 3AX 4AB 5AA 
    *   3    0.054678  (    2,    9)  1AX 2AX 3AB 4AA 5AA 7AB 
    *   4    0.054678  (    9,    2)  1AX 2AX 3AA 4AB 5AB 7AA 
    *   5   -0.054678  (    3,    5)  1AX 2AB 3AX 4AA 5AA 6AB 
    *   6   -0.054678  (    5,    3)  1AX 2AA 3AX 4AB 5AB 6AA 
    *   7   -0.044506  (    2,    5)  1AX 2AX 3AB 4AA 5AA 6AB 
    *   8   -0.044506  (    5,    2)  1AX 2AX 3AA 4AB 5AB 6AA 
    *   9   -0.044506  (    3,    9)  1AX 2AB 3AX 4AA 5AA 7AB 
    *  10   -0.044506  (    9,    3)  1AX 2AA 3AX 4AB 5AB 7AA 
    *  11    0.037402  (    0,   18)  1AX 2AA 3AX 4AA 5AB 6AB 
    *  12    0.037402  (   18,    0)  1AX 2AB 3AX 4AB 5AA 6AA 
    *  13   -0.037402  (    0,   23)  1AX 2AX 3AA 4AA 5AB 7AB 
    *  14   -0.037402  (   23,    0)  1AX 2AX 3AB 4AB 5AA 7AA 
    *  15    0.037139  (    4,   13)  1AB 2AX 3AX 4AA 5AA 8AB 
    *  16    0.037139  (   13,    4)  1AA 2AX 3AX 4AB 5AB 8AA 
    *  17    0.030444  (    0,   24)  1AX 2AA 3AX 4AA 5AB 7AB 
    *  18    0.030444  (   24,    0)  1AX 2AB 3AX 4AB 5AA 7AA 
    *  19    0.030444  (    0,   17)  1AX 2AX 3AA 4AA 5AB 6AB 
    *  20    0.030444  (   17,    0)  1AX 2AX 3AB 4AB 5AA 6AA 

		 "A good bug is a dead bug" 

			 - Starship Troopers

		 "I didn't write FORTRAN.  That's the problem."

			 - Edward Valeev

*** tstart() called on google.com
*** at Tue Sep 12 15:09:17 2017

   => Loading Basis Set <=

    Name: STO-3G
    Role: ORBITAL
    Keyword: BASIS
    atoms 1-8 entry H          line    18 file /usr/local/google/home/babbush/anaconda2/share/psi4/basis/sto-3g.gbs 


         ---------------------------------------------------------
                                   SCF
            by Justin Turney, Rob Parrish, and Andy Simmonett
                              RHF Reference
                        1 Threads,   7629 MiB Core
         ---------------------------------------------------------

  ==> Geometry <==

    Molecular point group: c1
    Full point group: D8h

    Geometry (in Angstrom), charge = 0, multiplicity = 1:

       Center              X                  Y                   Z               Mass       
    ------------   -----------------  -----------------  -----------------  -----------------
           H          0.968685782159     0.000000000000     0.000000000000     1.007825032070
           H          0.684964285404     0.684964285404     0.000000000000     1.007825032070
           H          0.000000000000     0.968685782159     0.000000000000     1.007825032070
           H         -0.684964285404     0.684964285404     0.000000000000     1.007825032070
           H         -0.968685782159     0.000000000000     0.000000000000     1.007825032070
           H         -0.684964285404    -0.684964285404     0.000000000000     1.007825032070
           H         -0.000000000000    -0.968685782159     0.000000000000     1.007825032070
           H          0.684964285404    -0.684964285404     0.000000000000     1.007825032070

  Running in c1 symmetry.

  Rotational constants: A =      4.45641  B =      4.45641  C =      2.22821 [cm^-1]
  Rotational constants: A = 133599.92452  B = 133599.92452  C =  66799.96226 [MHz]
  Nuclear repulsion =   12.258018906050880

  Charge       = 0
  Multiplicity = 1
  Electrons    = 8
  Nalpha       = 4
  Nbeta        = 4

  ==> Algorithm <==

  SCF Algorithm Type is PK.
  DIIS enabled.
  MOM disabled.
  Fractional occupation disabled.
  Guess Type is SAD.
  Energy threshold   = 1.00e-06
  Density threshold  = 1.00e-06
  Integral threshold = 0.00e+00

  ==> Primary Basis <==

  Basis Set: STO-3G
    Blend: STO-3G
    Number of shells: 8
    Number of basis function: 8
    Number of Cartesian functions: 8
    Spherical Harmonics?: true
    Max angular momentum: 0

  ==> Pre-Iterations <==

   -------------------------------------------------------
    Irrep   Nso     Nmo     Nalpha   Nbeta   Ndocc  Nsocc
   -------------------------------------------------------
     A          8       8       0       0       0       0
   -------------------------------------------------------
    Total       8       8       4       4       4       0
   -------------------------------------------------------

  ==> Integral Setup <==

  Using in-core PK algorithm.
   Calculation information:
      Number of atoms:                   8
      Number of AO shells:               8
      Number of primitives:             24
      Number of atomic orbitals:         8
      Number of basis functions:         8

      Integral cutoff                 1.00e-12
      Number of threads:                 1

  Performing in-core PK
  Using 1332 doubles for integral storage.
  We computed 666 shell quartets total.
  Whereas there are 666 unique shell quartets.
  ==> DiskJK: Disk-Based J/K Matrices <==

    J tasked:                  Yes
    K tasked:                  Yes
    wK tasked:                  No
    Memory (MB):              5722
    Schwarz Cutoff:          1E-12

    OpenMP threads:              1
  Minimum eigenvalue in the overlap matrix is 9.7247953543E-02.
  Using Symmetric Orthogonalization.

  SCF Guess: Superposition of Atomic Densities via on-the-fly atomic UHF.

  ==> Iterations <==

                        Total Energy        Delta E     RMS |[F,P]|

   @RHF iter   0:    -3.92595903456755   -3.92596e+00   4.54438e-14 
   @RHF iter   1:    -3.62934355814997    2.96615e-01   7.65438e-03 
   @RHF iter   2:    -3.63174015966032   -2.39660e-03   1.51089e-03 DIIS/DAMP
   @RHF iter   3:    -3.63183585162679   -9.56920e-05   3.46964e-05 DIIS/DAMP
   @RHF iter   4:    -3.63183589142991   -3.98031e-08   5.90817e-06 DIIS/DAMP
   @RHF iter   5:    -3.63183584463951    4.67904e-08   6.78810e-08 DIIS/DAMP

  ==> Post-Iterations <==

    Orbital Energies (a.u.)
    -----------------------

    Doubly Occupied:                                                      

       1A     -0.968199     2A     -0.668256     3A     -0.668256  
       4A     -0.098519  

    Virtual:                                                              

       5A      0.254318     6A      1.194733     7A      1.194733  
       8A      2.010186  

    Final Occupation by Irrep:
              A 
    DOCC [     4 ]

  Energy converged.

  @RHF Final Energy:    -3.63183584463951

   => Energetics <=

    Nuclear Repulsion Energy =             12.2580189060508804
    One-Electron Energy =                 -26.9732498150005213
    Two-Electron Energy =                  11.0833950643101353
    DFT Exchange-Correlation Energy =       0.0000000000000000
    Empirical Dispersion Energy =           0.0000000000000000
    PCM Polarization Energy =               0.0000000000000000
    EFP Energy =                            0.0000000000000000
    Total Energy =                         -3.6318358446395056



Properties will be evaluated at   0.000000,   0.000000,   0.000000 Bohr

Properties computed using the SCF density matrix

  Nuclear Dipole Moment: (a.u.)
     X:    -0.0000      Y:     0.0000      Z:     0.0000

  Electronic Dipole Moment: (a.u.)
     X:     0.0000      Y:     0.0000      Z:     0.0000

  Dipole Moment: (a.u.)
     X:     0.0000      Y:     0.0000      Z:     0.0000     Total:     0.0000

  Dipole Moment: (Debye)
     X:     0.0000      Y:     0.0000      Z:     0.0000     Total:     0.0000


*** tstop() called on google.com at Tue Sep 12 15:09:17 2017
Module time:
	user time   =       0.46 seconds =       0.01 minutes
	system time =       0.02 seconds =       0.00 minutes
	total time  =          0 seconds =       0.00 minutes
Total time:
	user time   =       2.10 seconds =       0.04 minutes
	system time =       0.05 seconds =       0.00 minutes
	total time  =          2 seconds =       0.03 minutes
 MINTS: Wrapper to libmints.
   by Justin Turney

   Calculation information:
      Number of threads:                 1
      Number of atoms:                   8
      Number of AO shells:               8
      Number of SO shells:               8
      Number of primitives:             24
      Number of atomic orbitals:         8
      Number of basis functions:         8

      Number of irreps:                  1
      Integral cutoff                 0.00e+00
      Number of functions per irrep: [   8 ]

 OEINTS: Overlap, kinetic, potential, dipole, and quadrupole integrals
         stored in file 35.

      Computing two-electron integrals...done
      Computed 666 non-zero two-electron integrals.
        Stored in file 33.


         ---------------------------------------------------------
                          Configuration Interaction
                            (a 'D E T C I' module)

                 C. David Sherrill, Daniel G. A. Smith, and
                              Matt L. Leininger
         ---------------------------------------------------------


   ==> Parameters <==

    EX LEVEL       =        8      H0 BLOCKSIZE  =     1000
    VAL EX LEVEL   =        0      H0 GUESS SIZE =     1000
    H0COUPLINGSIZE =        0      H0 COUPLING   =       NO
    MAXITER        =       24      NUM PRINT     =       20
    NUM ROOTS      =        1      ICORE         =        1
    PRINT LVL      =        1      FCI           =      YES
    R CONV         = 1.00e-06      MIXED         =      YES
    E CONV         = 1.00e-06      MIXED4        =      YES
    R4S            =       NO      REPL OTF      =       NO
    DIAG METHOD    =      SEM      FOLLOW ROOT   =        0
    PRECONDITIONER = DAVIDSON      UPDATE        = DAVIDSON
    S              =   0.0000      Ms0           =      YES
    GUESS VECTOR   =  H0BLOCK      OPENTYPE      =     NONE
    COLLAPSE SIZE  =        1      HD AVG        = EVANGELISTI
    MAX NUM VECS   =       25      REF SYM       =     AUTO
    IOPEN        =       NO

    EX ALLOW       =  1  1  1  1  1  1  1  1 
    STATE AVERAGE  =  0(1.00) 

   ==> CI Orbital and Space information <==

   ------------------------------------
               Space    Total     A
   ------------------------------------
                 Nso        8     8
                 Nmo        8     8
               Ndocc        4     4
               Nsocc        0     0
   ------------------------------------
              CI Spaces
   ------------------------------------
        Dropped DOCC        0     0
              Active        8     8
        Dropped UOCC        0     0
   ------------------------------------

   ==> Setting up CI strings <==

    There are 70 alpha and 70 beta strings
    The CI space requires 4900 (4.90E+03) determinants and 1 blocks

   ==> Transforming CI integrals <==

	Presorting SO-basis two-electron integrals.
	Sorting File: SO Ints (nn|nn) nbuckets = 1
	Transforming the one-electron integrals and constructing Fock matrices
	Starting first half-transformation.
	Sorting half-transformed integrals.
	First half integral transformation complete.
	Starting second half-transformation.
	Two-electron integral transformation complete.

   ==> Starting CI iterations <==

    H0 Block Eigenvalue =  -3.76866264

    Simultaneous Expansion Method (Block Davidson Method)
    Using 1 initial trial vectors

     Iter   Root       Total Energy       Delta E      C RMS

   @CI  0:     0     -3.768662642460   -1.6027E+01   1.7507E-01  
   @CI  1:     0     -3.775738029199   -7.0754E-03   3.5292E-02  
   @CI  2:     0     -3.775994087223   -2.5606E-04   8.6042E-03  
   @CI  3:     0     -3.776008832042   -1.4745E-05   1.7305E-03  
   @CI  4:     0     -3.776009589086   -7.5704E-07   3.6271E-04  
   @CI  5:     0     -3.776009625460   -3.6373E-08   9.4087E-05  
   @CI  6:     0     -3.776009627745   -2.2856E-09   2.5458E-05  
   @CI  7:     0     -3.776009627872   -1.2664E-10   4.3238E-06  
   @CI  8:     0     -3.776009627875   -3.2365E-12   6.5922E-07 c

   ==> Energetics <==

    SCF energy =           -3.631835844639506
    Total CI energy =      -3.776009627875007

   ==> FCI root 0 information <==

    FCI Root 0 energy =    -3.776009627875007

   The 20 most important determinants:

    *   1   -0.689048  (    0,    1)  1AX 2AX 3AX 4AA 5AB 
    *   2   -0.689048  (    1,    0)  1AX 2AX 3AX 4AB 5AA 
    *   3    0.065677  (    3,    5)  1AX 2AB 3AX 4AA 5AA 6AB 
    *   4    0.065677  (    5,    3)  1AX 2AA 3AX 4AB 5AB 6AA 
    *   5   -0.065677  (    2,   15)  1AX 2AX 3AB 4AA 5AA 7AB 
    *   6   -0.065677  (   15,    2)  1AX 2AX 3AA 4AB 5AB 7AA 
    *   7    0.045684  (    0,   19)  1AX 2AX 3AA 4AA 5AB 7AB 
    *   8    0.045684  (   19,    0)  1AX 2AX 3AB 4AB 5AA 7AA 
    *   9   -0.045684  (    0,   10)  1AX 2AA 3AX 4AA 5AB 6AB 
    *  10   -0.045684  (   10,    0)  1AX 2AB 3AX 4AB 5AA 6AA 
    *  11   -0.037996  (    4,   35)  1AB 2AX 3AX 4AA 5AA 8AB 
    *  12   -0.037996  (   35,    4)  1AA 2AX 3AX 4AB 5AB 8AA 
    *  13   -0.031738  (    2,    5)  1AX 2AX 3AB 4AA 5AA 6AB 
    *  14   -0.031738  (    5,    2)  1AX 2AX 3AA 4AB 5AB 6AA 
    *  15   -0.031738  (    3,   15)  1AX 2AB 3AX 4AA 5AA 7AB 
    *  16   -0.031738  (   15,    3)  1AX 2AA 3AX 4AB 5AB 7AA 
    *  17    0.022076  (    0,   20)  1AX 2AA 3AX 4AA 5AB 7AB 
    *  18    0.022076  (   20,    0)  1AX 2AB 3AX 4AB 5AA 7AA 
    *  19    0.022076  (    0,    9)  1AX 2AX 3AA 4AA 5AB 6AB 
    *  20    0.022076  (    9,    0)  1AX 2AX 3AB 4AB 5AA 6AA 

		 "A good bug is a dead bug" 

			 - Starship Troopers

		 "I didn't write FORTRAN.  That's the problem."

			 - Edward Valeev

*** tstart() called on google.com
*** at Tue Sep 12 15:09:18 2017

   => Loading Basis Set <=

    Name: STO-3G
    Role: ORBITAL
    Keyword: BASIS
    atoms 1-8 entry H          line    18 file /usr/local/google/home/babbush/anaconda2/share/psi4/basis/sto-3g.gbs 


         ---------------------------------------------------------
                                   SCF
            by Justin Turney, Rob Parrish, and Andy Simmonett
                              RHF Reference
                        1 Threads,   7629 MiB Core
         ---------------------------------------------------------

  ==> Geometry <==

    Molecular point group: c1
    Full point group: D8h

    Geometry (in Angstrom), charge = 0, multiplicity = 1:

       Center              X                  Y                   Z               Mass       
    ------------   -----------------  -----------------  -----------------  -----------------
           H          0.968685782159     0.000000000000     0.000000000000     1.007825032070
           H          0.684964285404     0.684964285404     0.000000000000     1.007825032070
           H          0.000000000000     0.968685782159     0.000000000000     1.007825032070
           H         -0.684964285404     0.684964285404     0.000000000000     1.007825032070
           H         -0.968685782159     0.000000000000     0.000000000000     1.007825032070
           H         -0.684964285404    -0.684964285404     0.000000000000     1.007825032070
           H         -0.000000000000    -0.968685782159     0.000000000000     1.007825032070
           H          0.684964285404    -0.684964285404     0.000000000000     1.007825032070

  Running in c1 symmetry.

  Rotational constants: A =      4.45641  B =      4.45641  C =      2.22821 [cm^-1]
  Rotational constants: A = 133599.92452  B = 133599.92452  C =  66799.96226 [MHz]
  Nuclear repulsion =   12.258018906050880

  Charge       = 0
  Multiplicity = 1
  Electrons    = 8
  Nalpha       = 4
  Nbeta        = 4

  ==> Algorithm <==

  SCF Algorithm Type is PK.
  DIIS enabled.
  MOM disabled.
  Fractional occupation disabled.
  Guess Type is SAD.
  Energy threshold   = 1.00e-06
  Density threshold  = 1.00e-06
  Integral threshold = 0.00e+00

  ==> Primary Basis <==

  Basis Set: STO-3G
    Blend: STO-3G
    Number of shells: 8
    Number of basis function: 8
    Number of Cartesian functions: 8
    Spherical Harmonics?: true
    Max angular momentum: 0

  ==> Pre-Iterations <==

   -------------------------------------------------------
    Irrep   Nso     Nmo     Nalpha   Nbeta   Ndocc  Nsocc
   -------------------------------------------------------
     A          8       8       0       0       0       0
   -------------------------------------------------------
    Total       8       8       4       4       4       0
   -------------------------------------------------------

  ==> Integral Setup <==

  Using in-core PK algorithm.
   Calculation information:
      Number of atoms:                   8
      Number of AO shells:               8
      Number of primitives:             24
      Number of atomic orbitals:         8
      Number of basis functions:         8

      Integral cutoff                 1.00e-12
      Number of threads:                 1

  Performing in-core PK
  Using 1332 doubles for integral storage.
  We computed 666 shell quartets total.
  Whereas there are 666 unique shell quartets.
  ==> DiskJK: Disk-Based J/K Matrices <==

    J tasked:                  Yes
    K tasked:                  Yes
    wK tasked:                  No
    Memory (MB):              5722
    Schwarz Cutoff:          1E-12

    OpenMP threads:              1
  Minimum eigenvalue in the overlap matrix is 9.7247953543E-02.
  Using Symmetric Orthogonalization.

  SCF Guess: Superposition of Atomic Densities via on-the-fly atomic UHF.

  ==> Iterations <==

                        Total Energy        Delta E     RMS |[F,P]|

   @RHF iter   0:    -3.92595903456755   -3.92596e+00   4.54438e-14 
   @RHF iter   1:    -3.62934355814997    2.96615e-01   7.65438e-03 
   @RHF iter   2:    -3.63174015966032   -2.39660e-03   1.51089e-03 DIIS/DAMP
   @RHF iter   3:    -3.63183585162679   -9.56920e-05   3.46964e-05 DIIS/DAMP
   @RHF iter   4:    -3.63183589142991   -3.98031e-08   5.90817e-06 DIIS/DAMP
   @RHF iter   5:    -3.63183584463950    4.67904e-08   6.78810e-08 DIIS/DAMP

  ==> Post-Iterations <==

    Orbital Energies (a.u.)
    -----------------------

    Doubly Occupied:                                                      

       1A     -0.968199     2A     -0.668256     3A     -0.668256  
       4A     -0.098519  

    Virtual:                                                              

       5A      0.254318     6A      1.194733     7A      1.194733  
       8A      2.010186  

    Final Occupation by Irrep:
              A 
    DOCC [     4 ]

  Energy converged.

  @RHF Final Energy:    -3.63183584463950

   => Energetics <=

    Nuclear Repulsion Energy =             12.2580189060508804
    One-Electron Energy =                 -26.9732498150005284
    Two-Electron Energy =                  11.0833950643101478
    DFT Exchange-Correlation Energy =       0.0000000000000000
    Empirical Dispersion Energy =           0.0000000000000000
    PCM Polarization Energy =               0.0000000000000000
    EFP Energy =                            0.0000000000000000
    Total Energy =                         -3.6318358446395003



Properties will be evaluated at   0.000000,   0.000000,   0.000000 Bohr

Properties computed using the SCF density matrix

  Nuclear Dipole Moment: (a.u.)
     X:     0.0000      Y:     0.0000      Z:     0.0000

  Electronic Dipole Moment: (a.u.)
     X:     0.0000      Y:     0.0000      Z:     0.0000

  Dipole Moment: (a.u.)
     X:     0.0000      Y:     0.0000      Z:     0.0000     Total:     0.0000

  Dipole Moment: (Debye)
     X:     0.0000      Y:     0.0000      Z:     0.0000     Total:     0.0000


*** tstop() called on google.com at Tue Sep 12 15:09:18 2017
Module time:
	user time   =       0.31 seconds =       0.01 minutes
	system time =       0.00 seconds =       0.00 minutes
	total time  =          0 seconds =       0.00 minutes
Total time:
	user time   =       2.99 seconds =       0.05 minutes
	system time =       0.08 seconds =       0.00 minutes
	total time  =          3 seconds =       0.05 minutes
 MINTS: Wrapper to libmints.
   by Justin Turney

   Calculation information:
      Number of threads:                 1
      Number of atoms:                   8
      Number of AO shells:               8
      Number of SO shells:               8
      Number of primitives:             24
      Number of atomic orbitals:         8
      Number of basis functions:         8

      Number of irreps:                  1
      Integral cutoff                 0.00e+00
      Number of functions per irrep: [   8 ]

 OEINTS: Overlap, kinetic, potential, dipole, and quadrupole integrals
         stored in file 35.

      Computing two-electron integrals...done
      Computed 666 non-zero two-electron integrals.
        Stored in file 33.


*** tstart() called on google.com
*** at Tue Sep 12 15:09:18 2017


	Wfn Parameters:
	--------------------
	Wavefunction         = CCSD
	Number of irreps     = 1
	Number of MOs        = 8
	Number of active MOs = 8
	AO-Basis             = NONE
	Semicanonical        = false
	Reference            = RHF
	Print Level          = 1

	IRREP	# MOs	# FZDC	# DOCC	# SOCC	# VIRT	# FZVR
	-----	-----	------	------	------	------	------
	 A	   8	    0	    4	    0	    4	    0
	Transforming integrals...
	IWL integrals will be deleted.
	(OO|OO)...
	Presorting SO-basis two-electron integrals.
	Sorting File: SO Ints (nn|nn) nbuckets = 1
	Transforming the one-electron integrals and constructing Fock matrices
	Starting first half-transformation.
	Sorting half-transformed integrals.
	First half integral transformation complete.
	Starting second half-transformation.
	Two-electron integral transformation complete.
	(OO|OV)...
	Starting second half-transformation.
	Two-electron integral transformation complete.
	(OO|VV)...
	Starting second half-transformation.
	Two-electron integral transformation complete.
	(OV|OO)...
	Starting first half-transformation.
	Sorting half-transformed integrals.
	First half integral transformation complete.
	Starting second half-transformation.
	Two-electron integral transformation complete.
	(OV|OV)...
	Starting second half-transformation.
	Two-electron integral transformation complete.
	(OV|VV)...
	Starting second half-transformation.
	Two-electron integral transformation complete.
	(VV|OO)...
	Starting first half-transformation.
	Sorting half-transformed integrals.
	First half integral transformation complete.
	Starting second half-transformation.
	Two-electron integral transformation complete.
	(VV|OV)...
	Starting second half-transformation.
	Two-electron integral transformation complete.
	(VV|VV)...
	Starting second half-transformation.
	Two-electron integral transformation complete.
	Frozen core energy     =      0.00000000000000

	Size of irrep 0 of <ab|cd> integrals:      0.000 (MW) /      0.002 (MB)
	Total:                                     0.000 (MW) /      0.002 (MB)

	Size of irrep 0 of <ia|bc> integrals:      0.000 (MW) /      0.002 (MB)
	Total:                                     0.000 (MW) /      0.002 (MB)

	Size of irrep 0 of tijab amplitudes:       0.000 (MW) /      0.002 (MB)
	Total:                                     0.000 (MW) /      0.002 (MB)

	Nuclear Rep. energy          =     12.25801890605088
	SCF energy                   =     -3.63183584463950
	One-electron energy          =    -26.97324983283272
	Two-electron energy          =     11.08339508214274
	Reference energy             =     -3.63183584463910

*** tstop() called on google.com at Tue Sep 12 15:09:18 2017
Module time:
	user time   =       0.01 seconds =       0.00 minutes
	system time =       0.01 seconds =       0.00 minutes
	total time  =          0 seconds =       0.00 minutes
Total time:
	user time   =       3.00 seconds =       0.05 minutes
	system time =       0.09 seconds =       0.00 minutes
	total time  =          3 seconds =       0.05 minutes

*** tstart() called on google.com
*** at Tue Sep 12 15:09:18 2017

            **************************
            *                        *
            *        CCENERGY        *
            *                        *
            **************************

    Nuclear Rep. energy (wfn)     =   12.258018906050880
    SCF energy          (wfn)     =   -3.631835844639501
    Reference energy    (file100) =   -3.631835844639097

    Input parameters:
    -----------------
    Wave function   =     CCSD
    Reference wfn   =     RHF
    Brueckner       =     No
    Memory (Mbytes) =     8000.0
    Maxiter         =   1000000
    R_Convergence   =     1.0e-06
    E_Convergence   =     1.0e-06
    Restart         =     Yes
    DIIS            =     Yes
    AO Basis        =     NONE
    ABCD            =     NEW
    Cache Level     =     2
    Cache Type      =     LOW
    Print Level     =     1
    Num. of threads =     1
    # Amps to Print =     1000000
    Print MP2 Amps? =     No
    Analyze T2 Amps =     No
    Print Pair Ener =     No
    Local CC        =     No
    SCS-MP2         =     False
    SCSN-MP2        =     False
    SCS-CCSD        =     False

MP2 correlation energy -0.0512827490704746
                Solving CC Amplitude Equations
                ------------------------------
  Iter             Energy              RMS        T1Diag      D1Diag    New D1Diag    D2Diag
  ----     ---------------------    ---------   ----------  ----------  ----------   --------
     0        -0.051282749065382    0.000e+00    0.000000    0.000000    0.000000    0.092247
     1        -0.060385654492959    2.860e-02    0.004068    0.008018    0.008018    0.111327
     2        -0.063386455706609    1.207e-02    0.006156    0.012100    0.012100    0.119230
     3        -0.063516123744404    9.576e-03    0.006354    0.012503    0.012503    0.120821
     4        -0.064300523309389    9.359e-03    0.006646    0.013117    0.013117    0.165137
     5        -0.065968009694650    7.172e-03    0.007151    0.014096    0.014096    0.355000
     6        -0.066232231353602    1.210e-03    0.007287    0.014320    0.014320    0.370423
     7        -0.066279134480828    2.569e-04    0.007299    0.014344    0.014344    0.377856
     8        -0.066271205962140    8.281e-05    0.007297    0.014339    0.014339    0.376204
     9        -0.066266836318649    7.028e-05    0.007295    0.014337    0.014337    0.375473
    10        -0.066272359731226    4.730e-05    0.007296    0.014340    0.014340    0.376353
    11        -0.066272025307099    5.882e-06    0.007296    0.014340    0.014340    0.376295
    12        -0.066272042259657    7.524e-07    0.007296    0.014340    0.014340    0.376295

    Iterations converged.


    Largest TIA Amplitudes:
              1   1         0.0111211674
              2   2         0.0111211674
              1   2         0.0090524104
              2   1        -0.0090524104
              0   3         0.0038188971
              3   0         0.0000165447

    Largest TIjAb Amplitudes:
      3   3   0   0         0.3444739721
      1   1   0   0        -0.0960279014
      2   2   0   0        -0.0960279014
      3   3   1   1        -0.0643240479
      3   3   2   2        -0.0643240479
      0   0   0   0        -0.0402501029
      3   3   3   3        -0.0235290529
      0   1   0   2        -0.0203166576
      0   2   0   1        -0.0203166576
      1   0   2   0        -0.0203166576
      2   0   1   0        -0.0203166576
      1   1   1   1        -0.0157427435
      2   2   2   2        -0.0157427435
      1   3   1   3        -0.0143637584
      2   3   2   3         0.0143637584
      3   1   3   1        -0.0143637584
      3   2   3   2         0.0143637584
      1   1   2   2        -0.0140195809
      2   2   1   1        -0.0140195809
      0   1   2   0        -0.0140124339
      0   2   1   0        -0.0140124339
      1   0   0   2        -0.0140124339
      2   0   0   1        -0.0140124339
      1   3   0   2        -0.0139986522
      2   3   0   1         0.0139986522
      3   1   2   0        -0.0139986522
      3   2   1   0         0.0139986522
      0   1   0   1         0.0130825063
      0   2   0   2        -0.0130825063
      1   0   1   0         0.0130825063
      2   0   2   0        -0.0130825063
      1   2   0   3        -0.0130286564
      1   2   3   0        -0.0130286564
      2   1   0   3        -0.0130286564
      2   1   3   0        -0.0130286564
      0   0   1   1        -0.0114104367
      0   0   2   2        -0.0114104367
      1   3   0   1         0.0113920222
      2   3   0   2         0.0113920222
      3   1   1   0         0.0113920222
      3   2   2   0         0.0113920222
      1   3   2   3        -0.0092497691
      2   3   1   3        -0.0092497691
      3   1   3   2        -0.0092497691
      3   2   3   1        -0.0092497691
      0   3   1   2        -0.0090614013
      0   3   2   1        -0.0090614013
      3   0   1   2        -0.0090614013
      3   0   2   1        -0.0090614013
      0   1   1   0         0.0090230463
      0   2   2   0        -0.0090230463
      1   0   0   1         0.0090230463
      2   0   0   2        -0.0090230463
      1   1   3   3        -0.0087006139
      2   2   3   3        -0.0087006139
      1   3   3   1        -0.0086582823
      2   3   3   2         0.0086582823
      3   1   1   3        -0.0086582823
      3   2   2   3         0.0086582823
      0   1   1   3        -0.0078881207
      0   2   2   3        -0.0078881207
      1   0   3   1        -0.0078881207
      2   0   3   2        -0.0078881207
      1   2   2   1        -0.0076154366
      2   1   1   2        -0.0076154366
      1   3   2   0         0.0068157447
      2   3   1   0        -0.0068157447
      3   1   0   2         0.0068157447
      3   2   0   1        -0.0068157447
      0   1   3   1        -0.0064321052
      0   2   3   2        -0.0064321052
      1   0   1   3        -0.0064321052
      2   0   2   3        -0.0064321052
      0   1   2   3        -0.0064205869
      0   2   1   3         0.0064205869
      1   0   3   2        -0.0064205869
      2   0   3   1         0.0064205869
      0   0   3   3        -0.0059291806
      1   2   1   2         0.0056973580
      2   1   2   1         0.0056973580
      1   3   3   2        -0.0055756157
      2   3   3   1        -0.0055756157
      3   1   2   3        -0.0055756157
      3   2   1   3        -0.0055756157
      1   3   1   0        -0.0055486980
      2   3   2   0        -0.0055486980
      3   1   0   1        -0.0055486980
      3   2   0   2        -0.0055486980
      0   1   3   2        -0.0052354489
      0   2   3   1         0.0052354489
      1   0   2   3        -0.0052354489
      2   0   1   3         0.0052354489
      1   2   1   1         0.0044985226
      1   2   2   2        -0.0044985226
      2   1   1   1         0.0044985226
      2   1   2   2        -0.0044985226
      1   1   1   2        -0.0042841369
      1   1   2   1        -0.0042841369
      2   2   1   2         0.0042841369
      2   2   2   1         0.0042841369
      0   3   1   1        -0.0029574169
      0   3   2   2         0.0029574169
      3   0   1   1        -0.0029574169
      3   0   2   2         0.0029574169
      1   1   0   3        -0.0014534954
      1   1   3   0        -0.0014534954
      2   2   0   3         0.0014534954
      2   2   3   0         0.0014534954
      0   3   0   3        -0.0000009306
      3   0   3   0        -0.0000009306
      0   3   3   0        -0.0000004736
      3   0   0   3        -0.0000004736

    SCF energy       (wfn)                    =   -3.631835844639501
    Reference energy (file100)                =   -3.631835844639097

    Opposite-spin MP2 correlation energy      =   -0.044405208531984
    Same-spin MP2 correlation energy          =   -0.006877540533398
    MP2 correlation energy                    =   -0.051282749070475
      * MP2 total energy                      =   -3.683118593709572

    Opposite-spin CCSD correlation energy     =   -0.058305840637348
    Same-spin CCSD correlation energy         =   -0.007966203078236
    CCSD correlation energy                   =   -0.066272042259657
      * CCSD total energy                     =   -3.698107886898755


*** tstop() called on google.com at Tue Sep 12 15:09:19 2017
Module time:
	user time   =       0.59 seconds =       0.01 minutes
	system time =       0.09 seconds =       0.00 minutes
	total time  =          1 seconds =       0.02 minutes
Total time:
	user time   =       3.59 seconds =       0.06 minutes
	system time =       0.18 seconds =       0.00 minutes
	total time  =          4 seconds =       0.07 minutes

*** Psi4 exiting successfully. Buy a developer a beer!
