
    -----------------------------------------------------------------------
          Psi4: An Open-Source Ab Initio Electronic Structure Package
                               Psi4 1.1 release

                         Git: Rev {HEAD} add49b9 


    R. M. Parrish, L. A. Burns, D. G. A. Smith, A. C. Simmonett,
    A. E. DePrince III, E. G. Hohenstein, U. Bozkaya, A. Yu. Sokolov,
    R. Di Remigio, R. M. Richard, J. F. Gonthier, A. M. James,
    H. R. McAlexander, A. Kumar, M. Saitow, X. Wang, B. P. Pritchard,
    P. Verma, H. F. Schaefer III, K. Patkowski, R. A. King, E. F. Valeev,
    F. A. Evangelista, J. M. Turney, T. D. Crawford, and C. D. Sherrill,
    J. Chem. Theory Comput. in press (2017).
    (doi: 10.1021/acs.jctc.7b00174)

    -----------------------------------------------------------------------


    Psi4 started on: Tuesday, 12 September 2017 03:09PM

    Process ID: 182888
    PSIDATADIR: /usr/local/google/home/babbush/anaconda2/share/psi4
    Memory:     500.0 MiB
    Threads:    1
    
  ==> Input File <==

--------------------------------------------------------------------------
"""This is a template for psi4 input format."""
import numpy
import sys

from openfermion.config import *
from openfermion.ops._interaction_tensor import (one_body_basis_change,
                                                 two_body_basis_change)
from openfermion.utils import MolecularData
from numpy import array

sys.path.append('/usr/local/google/home/babbush/Desktop/FermiLib-Plugin-Psi4/openfermionpsi4')
from _psi4_conversion_functions import *


# Set memory that job can use in megabytes.
memory 8000 mb

# Initialize molecular data.
_description = 'ring_0.7414'
if _description == 'None':
    _description = None
molecule = MolecularData([('H', (1.0838542911404561, 0.0, 0.0)), ('H', (0.83028055687880531, 0.69668810905067213, 0.0)), ('H', (0.18820932251302283, 1.0673881090506721, 0.0)), ('H', (-0.54192714557022781, 0.93864535012840999, 0.0)), ('H', (-1.018489879391828, 0.37070000000000003, 0.0)), ('H', (-1.0184898793918282, -0.37069999999999981, 0.0)), ('H', (-0.54192714557022847, -0.93864535012840966, 0.0)), ('H', (0.18820932251302236, -1.0673881090506723, 0.0)), ('H', (0.83028055687880509, -0.69668810905067247, 0.0))],
                         'sto-3g',
                         2,
                         0,
                         _description,
                          filename='/usr/local/google/home/babbush/Desktop/OpenFermion/src/openfermion/data/H9_sto-3g_doublet_ring_0.7414')

# Set molecular geometry and symmetry.
molecule mol {
H 1.08385429114 0.0 0.0
H 0.830280556879 0.696688109051 0.0
H 0.188209322513 1.06738810905 0.0
H -0.54192714557 0.938645350128 0.0
H -1.01848987939 0.3707 0.0
H -1.01848987939 -0.3707 0.0
H -0.54192714557 -0.938645350128 0.0
H 0.188209322513 -1.06738810905 0.0
H 0.830280556879 -0.696688109051 0.0
symmetry c1
}
mol.set_multiplicity(2)
mol.set_molecular_charge(0)

# Set reference and guess.
if molecule.multiplicity == 1:
    set reference rhf
    set guess sad
else:
    set reference rohf
    set guess gwh

# Set global parameters of calculation.
set globals {
    basis sto-3g
    freeze_core false
    fail_on_maxiter true
    df_scf_guess false
    opdm true
    tpdm true
    soscf false
    scf_type pk
    maxiter 1e6
    num_amps_print 1e6
    r_convergence 1e-6
    d_convergence 1e-6
    e_convergence 1e-6
    ints_tolerance EQUALITY_TOLERANCE
    damping_percentage 0
}

# Run self-consistent field (SCF) calculation.
if 1:
    try:
        hf_energy, hf_wavefunction = energy('scf', return_wfn=True)
        if 1:
            print('Hartree-Fock energy for {} ({} electrons) is {}.'.format(
                molecule.name, molecule.n_electrons, hf_energy))
    except:
        if 1:
            print('WARNING: SCF calculation failed.')
        else:
            raise
    else:
        # Get orbitals and Fock matrix.
        molecule.hf_energy = hf_energy
        molecule.nuclear_repulsion = mol.nuclear_repulsion_energy()
        molecule.canonical_orbitals = numpy.asarray(hf_wavefunction.Ca())
        molecule.n_orbitals = molecule.canonical_orbitals.shape[0]
        molecule.n_qubits = 2 * molecule.n_orbitals
        molecule.orbital_energies = numpy.asarray(hf_wavefunction.epsilon_a())
        molecule.fock_matrix = numpy.asarray(hf_wavefunction.Fa())

        # Get integrals using MintsHelper.
        mints = MintsHelper(hf_wavefunction.basisset())
        molecule.one_body_integrals = one_body_basis_change(
            numpy.asarray(mints.ao_kinetic()), molecule.canonical_orbitals)
        molecule.one_body_integrals += one_body_basis_change(
            numpy.asarray(mints.ao_potential()), molecule.canonical_orbitals)
        two_body_integrals = numpy.asarray(mints.ao_eri())
        two_body_integrals.reshape((molecule.n_orbitals, molecule.n_orbitals,
                                    molecule.n_orbitals, molecule.n_orbitals))
        two_body_integrals = numpy.einsum('psqr', two_body_integrals)
        two_body_integrals = two_body_basis_change(
            two_body_integrals, molecule.canonical_orbitals)
        molecule.two_body_integrals = two_body_integrals
        molecule.save()


# Perform MP2 energy calculation if there are at least two electrons.
if 1:
    try:
        assert molecule.n_electrons > 1
        mp2_energy = energy('mp2')
        if 1:
            print('MP2 energy for {} ({} electrons) is {}.'.format(
                molecule.name, molecule.n_electrons, mp2_energy))
    except:
        if 1:
            print('WARNING: MP2 calculation failed.')
        else:
            raise
    else:
        molecule.mp2_energy = mp2_energy
        molecule.save()


# Perform configuration interaction singles and doubles (CISD) calculation.
if 1:
    set qc_module detci
    try:
        cisd_energy, cisd_wavefunction = energy('cisd', return_wfn=True)
        if 1:
            print('CISD energy for {} ({} electrons) is {}.'.format(
                molecule.name, molecule.n_electrons, cisd_energy))
    except:
        if 1:
            print('WARNING: CISD calculation failed.')
        else:
            raise
    else:
        # For the functions below, "a" and "b" refer to "up and "down" spins.
        molecule.cisd_energy = cisd_energy

        # Get 1-RDM from CISD calculation.
        cisd_one_rdm_a = numpy.array(cisd_wavefunction.get_opdm(
            0, 0, 'A', True)).reshape(molecule.n_orbitals, molecule.n_orbitals)
        cisd_one_rdm_b = numpy.array(cisd_wavefunction.get_opdm(
            0, 0, 'B', True)).reshape(molecule.n_orbitals, molecule.n_orbitals)

        # Get 2-RDM from CISD calculation.
        cisd_two_rdm_aa = numpy.array(cisd_wavefunction.get_tpdm(
            'AA', False)).reshape(molecule.n_orbitals, molecule.n_orbitals,
                                  molecule.n_orbitals, molecule.n_orbitals)
        cisd_two_rdm_ab = numpy.array(cisd_wavefunction.get_tpdm(
            'AB', False)).reshape(molecule.n_orbitals, molecule.n_orbitals,
                                  molecule.n_orbitals, molecule.n_orbitals)
        cisd_two_rdm_bb = numpy.array(cisd_wavefunction.get_tpdm(
            'BB', False)).reshape(molecule.n_orbitals, molecule.n_orbitals,
                                  molecule.n_orbitals, molecule.n_orbitals)

        # Get overall RDMs.
        cisd_one_rdm, cisd_two_rdm = unpack_spatial_rdm(
            cisd_one_rdm_a, cisd_one_rdm_b, cisd_two_rdm_aa,
            cisd_two_rdm_ab, cisd_two_rdm_bb)

        # Store 1-RDM in molecule file, 2-RDM separately in other file.
        molecule.cisd_one_rdm = cisd_one_rdm
        molecule.cisd_two_rdm = cisd_two_rdm
        molecule.save()


# Perform exact diagonalization.
if 1:
    set qc_module detci
    try:
        fci_energy, fci_wavefunction = energy('fci', return_wfn=True)
        if 1:
            print('FCI energy for {} ({} electrons) is {}.'.format(
                molecule.name, molecule.n_electrons, fci_energy))
    except:
        if 1:
            print('WARNING: FCI calculation failed.')
        else:
            raise
    else:
        # For the functions below, "a" and "b" refer to "up and "down" spins.
        molecule.fci_energy = fci_energy

        # Get 1-RDM from FCI calculation.
        fci_one_rdm_a = numpy.array(fci_wavefunction.get_opdm(
            0, 0, 'A', True)).reshape(molecule.n_orbitals, molecule.n_orbitals)
        fci_one_rdm_b = numpy.array(fci_wavefunction.get_opdm(
            0, 0, 'B', True)).reshape(molecule.n_orbitals, molecule.n_orbitals)

        # Get 2-RDM from FCI calculation.
        fci_two_rdm_aa = numpy.array(fci_wavefunction.get_tpdm(
            'AA', False)).reshape(molecule.n_orbitals, molecule.n_orbitals,
                                  molecule.n_orbitals, molecule.n_orbitals)
        fci_two_rdm_ab = numpy.array(fci_wavefunction.get_tpdm(
            'AB', False)).reshape(molecule.n_orbitals, molecule.n_orbitals,
                                  molecule.n_orbitals, molecule.n_orbitals)
        fci_two_rdm_bb = numpy.array(fci_wavefunction.get_tpdm(
            'BB', False)).reshape(molecule.n_orbitals, molecule.n_orbitals,
                                  molecule.n_orbitals, molecule.n_orbitals)

        # Get overall RDMs.
        fci_one_rdm, fci_two_rdm = unpack_spatial_rdm(
            fci_one_rdm_a, fci_one_rdm_b,
            fci_two_rdm_aa, fci_two_rdm_ab, fci_two_rdm_bb)

        # Store 1-RDM in molecule file, 2-RDM separately in other file.
        molecule.fci_one_rdm = fci_one_rdm
        molecule.fci_two_rdm = fci_two_rdm
        molecule.save()


# Perform coupled cluster singles and doubles (CCSD) calculation.
if 1:
    set qc_module ccenergy
    try:
        ccsd_energy = energy('ccsd')
        if 1:
            print('CCSD energy for {} ({} electrons) is {}.'.format(
                molecule.name, molecule.n_electrons, ccsd_energy))
    except:
        if 1:
            print('WARNING: CCSD calculation failed.')
        else:
            raise
    else:
        molecule.ccsd_energy = ccsd_energy

        # Merge CC amplitudes into molecule by parsing
        psi_filename = outfile_name()
        single_cc_amplitudes, double_cc_amplitudes = (
            parse_psi4_ccsd_amplitudes(
                2 * molecule.n_orbitals,
                molecule.get_n_alpha_electrons(),
                molecule.get_n_beta_electrons(),
                psi_filename))

        molecule.ccsd_single_amps = single_cc_amplitudes
        molecule.ccsd_double_amps = double_cc_amplitudes
        molecule.save()
--------------------------------------------------------------------------

  Memory set to   7.451 GiB by Python driver.

*** tstart() called on google.com
*** at Tue Sep 12 15:09:20 2017

   => Loading Basis Set <=

    Name: STO-3G
    Role: ORBITAL
    Keyword: BASIS
    atoms 1-9 entry H          line    18 file /usr/local/google/home/babbush/anaconda2/share/psi4/basis/sto-3g.gbs 


         ---------------------------------------------------------
                                   SCF
            by Justin Turney, Rob Parrish, and Andy Simmonett
                             ROHF Reference
                        1 Threads,   7629 MiB Core
         ---------------------------------------------------------

  ==> Geometry <==

    Molecular point group: c1
    Full point group: D9h

    Geometry (in Angstrom), charge = 0, multiplicity = 2:

       Center              X                  Y                   Z               Mass       
    ------------   -----------------  -----------------  -----------------  -----------------
           H          0.000000000000     0.000000000000     1.083854291140     1.007825032070
           H          0.000000000000    -0.696688109051     0.830280556879     1.007825032070
           H          0.000000000000    -1.067388109050     0.188209322513     1.007825032070
           H          0.000000000000    -0.938645350128    -0.541927145570     1.007825032070
           H          0.000000000000    -0.370700000000    -1.018489879390     1.007825032070
           H          0.000000000000     0.370700000000    -1.018489879390     1.007825032070
           H          0.000000000000     0.938645350128    -0.541927145570     1.007825032070
           H          0.000000000000     1.067388109050     0.188209322513     1.007825032070
           H          0.000000000000     0.696688109051     0.830280556879     1.007825032070

  Running in c1 symmetry.

  Rotational constants: A =      3.16415  B =      3.16415  C =      1.58207 [cm^-1]
  Rotational constants: A =  94858.82448  B =  94858.82448  C =  47429.41224 [MHz]
  Nuclear repulsion =   14.609719634197905

  Charge       = 0
  Multiplicity = 2
  Electrons    = 9
  Nalpha       = 5
  Nbeta        = 4

  ==> Algorithm <==

  SCF Algorithm Type is PK.
  DIIS enabled.
  MOM disabled.
  Fractional occupation disabled.
  Guess Type is GWH.
  Energy threshold   = 1.00e-06
  Density threshold  = 1.00e-06
  Integral threshold = 0.00e+00

  ==> Primary Basis <==

  Basis Set: STO-3G
    Blend: STO-3G
    Number of shells: 9
    Number of basis function: 9
    Number of Cartesian functions: 9
    Spherical Harmonics?: true
    Max angular momentum: 0

  ==> Pre-Iterations <==

   -------------------------------------------------------
    Irrep   Nso     Nmo     Nalpha   Nbeta   Ndocc  Nsocc
   -------------------------------------------------------
     A          9       9       0       0       0       0
   -------------------------------------------------------
    Total       9       9       5       4       4       1
   -------------------------------------------------------

  ==> Integral Setup <==

  Using in-core PK algorithm.
   Calculation information:
      Number of atoms:                   9
      Number of AO shells:               9
      Number of primitives:             27
      Number of atomic orbitals:         9
      Number of basis functions:         9

      Integral cutoff                 1.00e-12
      Number of threads:                 1

  Performing in-core PK
  Using 2070 doubles for integral storage.
  We computed 1035 shell quartets total.
  Whereas there are 1035 unique shell quartets.
  ==> DiskJK: Disk-Based J/K Matrices <==

    J tasked:                  Yes
    K tasked:                  Yes
    wK tasked:                  No
    Memory (MB):              5722
    Schwarz Cutoff:          1E-12

    OpenMP threads:              1
  Minimum eigenvalue in the overlap matrix is 1.0651036623E-01.
  Using Symmetric Orthogonalization.

  SCF Guess: Generalized Wolfsberg-Helmholtz.

  ==> Iterations <==

                        Total Energy        Delta E     RMS |[F,P]|

   @ROHF iter   1:    -4.28211667743149   -4.28212e+00   3.20939e-03 
   @ROHF iter   2:    -4.28342916063444   -1.31248e-03   8.73563e-04 DIIS/DAMP
   @ROHF iter   3:    -4.28354260309803   -1.13442e-04   1.41255e-04 DIIS/DAMP
   @ROHF iter   4:    -4.28354557136931   -2.96827e-06   3.20728e-05 DIIS/DAMP
   @ROHF iter   5:    -4.28354575183583   -1.80467e-07   5.59785e-06 DIIS/DAMP
   @ROHF iter   6:    -4.28354575737655   -5.54072e-09   9.05429e-07 DIIS/DAMP

  ==> Post-Iterations <==

    Orbital Energies (a.u.)
    -----------------------

    Doubly Occupied:                                                      

       1A     -0.960237     2A     -0.727785     3A     -0.727779  
       4A     -0.242816  

    Singly Occupied:                                                      

       5A     -0.067612  

    Virtual:                                                              

       6A      0.843920     7A      0.844094     8A      1.867830  
       9A      1.868232  

    Final Occupation by Irrep:
              A 
    DOCC [     4 ]
    SOCC [     1 ]

  Energy converged.

  @ROHF Final Energy:    -4.28354575737655

   => Energetics <=

    Nuclear Repulsion Energy =             14.6097196341979050
    One-Electron Energy =                 -32.1848172825762049
    Two-Electron Energy =                  13.2915518910017507
    DFT Exchange-Correlation Energy =       0.0000000000000000
    Empirical Dispersion Energy =           0.0000000000000000
    PCM Polarization Energy =               0.0000000000000000
    EFP Energy =                            0.0000000000000000
    Total Energy =                         -4.2835457573765492



Properties will be evaluated at   0.000000,   0.000000,   0.000000 Bohr

Properties computed using the SCF density matrix

  Nuclear Dipole Moment: (a.u.)
     X:     0.0000      Y:     0.0000      Z:     0.0000

  Electronic Dipole Moment: (a.u.)
     X:     0.0000      Y:     0.0000      Z:     0.0038

  Dipole Moment: (a.u.)
     X:     0.0000      Y:     0.0000      Z:     0.0038     Total:     0.0038

  Dipole Moment: (Debye)
     X:     0.0000      Y:     0.0000      Z:     0.0096     Total:     0.0096


*** tstop() called on google.com at Tue Sep 12 15:09:20 2017
Module time:
	user time   =       0.22 seconds =       0.00 minutes
	system time =       0.00 seconds =       0.00 minutes
	total time  =          0 seconds =       0.00 minutes
Total time:
	user time   =       0.22 seconds =       0.00 minutes
	system time =       0.00 seconds =       0.00 minutes
	total time  =          0 seconds =       0.00 minutes

*** tstart() called on google.com
*** at Tue Sep 12 15:09:20 2017

   => Loading Basis Set <=

    Name: STO-3G
    Role: ORBITAL
    Keyword: BASIS
    atoms 1-9 entry H          line    18 file /usr/local/google/home/babbush/anaconda2/share/psi4/basis/sto-3g.gbs 


         ---------------------------------------------------------
                                   SCF
            by Justin Turney, Rob Parrish, and Andy Simmonett
                             ROHF Reference
                        1 Threads,   7629 MiB Core
         ---------------------------------------------------------

  ==> Geometry <==

    Molecular point group: c1
    Full point group: D9h

    Geometry (in Angstrom), charge = 0, multiplicity = 2:

       Center              X                  Y                   Z               Mass       
    ------------   -----------------  -----------------  -----------------  -----------------
           H          0.000000000000     0.000000000000     1.083854291140     1.007825032070
           H          0.000000000000    -0.696688109051     0.830280556879     1.007825032070
           H          0.000000000000    -1.067388109050     0.188209322513     1.007825032070
           H          0.000000000000    -0.938645350128    -0.541927145570     1.007825032070
           H          0.000000000000    -0.370700000000    -1.018489879390     1.007825032070
           H          0.000000000000     0.370700000000    -1.018489879390     1.007825032070
           H          0.000000000000     0.938645350128    -0.541927145570     1.007825032070
           H          0.000000000000     1.067388109050     0.188209322513     1.007825032070
           H          0.000000000000     0.696688109051     0.830280556879     1.007825032070

  Running in c1 symmetry.

  Rotational constants: A =      3.16415  B =      3.16415  C =      1.58207 [cm^-1]
  Rotational constants: A =  94858.82448  B =  94858.82448  C =  47429.41224 [MHz]
  Nuclear repulsion =   14.609719634197905

  Charge       = 0
  Multiplicity = 2
  Electrons    = 9
  Nalpha       = 5
  Nbeta        = 4

  ==> Algorithm <==

  SCF Algorithm Type is PK.
  DIIS enabled.
  MOM disabled.
  Fractional occupation disabled.
  Guess Type is GWH.
  Energy threshold   = 1.00e-06
  Density threshold  = 1.00e-06
  Integral threshold = 0.00e+00

  ==> Primary Basis <==

  Basis Set: STO-3G
    Blend: STO-3G
    Number of shells: 9
    Number of basis function: 9
    Number of Cartesian functions: 9
    Spherical Harmonics?: true
    Max angular momentum: 0

  ==> Pre-Iterations <==

   -------------------------------------------------------
    Irrep   Nso     Nmo     Nalpha   Nbeta   Ndocc  Nsocc
   -------------------------------------------------------
     A          9       9       0       0       0       0
   -------------------------------------------------------
    Total       9       9       5       4       4       1
   -------------------------------------------------------

  ==> Integral Setup <==

  Using in-core PK algorithm.
   Calculation information:
      Number of atoms:                   9
      Number of AO shells:               9
      Number of primitives:             27
      Number of atomic orbitals:         9
      Number of basis functions:         9

      Integral cutoff                 1.00e-12
      Number of threads:                 1

  Performing in-core PK
  Using 2070 doubles for integral storage.
  We computed 1035 shell quartets total.
  Whereas there are 1035 unique shell quartets.
  ==> DiskJK: Disk-Based J/K Matrices <==

    J tasked:                  Yes
    K tasked:                  Yes
    wK tasked:                  No
    Memory (MB):              5722
    Schwarz Cutoff:          1E-12

    OpenMP threads:              1
  Minimum eigenvalue in the overlap matrix is 1.0651036623E-01.
  Using Symmetric Orthogonalization.

  SCF Guess: Generalized Wolfsberg-Helmholtz.

  ==> Iterations <==

                        Total Energy        Delta E     RMS |[F,P]|

   @ROHF iter   1:    -4.28211667743149   -4.28212e+00   3.20939e-03 
   @ROHF iter   2:    -4.28342916063444   -1.31248e-03   8.73563e-04 DIIS/DAMP
   @ROHF iter   3:    -4.28354260309803   -1.13442e-04   1.41255e-04 DIIS/DAMP
   @ROHF iter   4:    -4.28354557136931   -2.96827e-06   3.20728e-05 DIIS/DAMP
   @ROHF iter   5:    -4.28354575183583   -1.80467e-07   5.59785e-06 DIIS/DAMP
   @ROHF iter   6:    -4.28354575737655   -5.54072e-09   9.05429e-07 DIIS/DAMP

  ==> Post-Iterations <==

    Orbital Energies (a.u.)
    -----------------------

    Doubly Occupied:                                                      

       1A     -0.960237     2A     -0.727785     3A     -0.727779  
       4A     -0.242816  

    Singly Occupied:                                                      

       5A     -0.067612  

    Virtual:                                                              

       6A      0.843920     7A      0.844094     8A      1.867830  
       9A      1.868232  

    Final Occupation by Irrep:
              A 
    DOCC [     4 ]
    SOCC [     1 ]

  Energy converged.

  @ROHF Final Energy:    -4.28354575737655

   => Energetics <=

    Nuclear Repulsion Energy =             14.6097196341979050
    One-Electron Energy =                 -32.1848172825762049
    Two-Electron Energy =                  13.2915518910017507
    DFT Exchange-Correlation Energy =       0.0000000000000000
    Empirical Dispersion Energy =           0.0000000000000000
    PCM Polarization Energy =               0.0000000000000000
    EFP Energy =                            0.0000000000000000
    Total Energy =                         -4.2835457573765492



Properties will be evaluated at   0.000000,   0.000000,   0.000000 Bohr

Properties computed using the SCF density matrix

  Nuclear Dipole Moment: (a.u.)
     X:     0.0000      Y:     0.0000      Z:     0.0000

  Electronic Dipole Moment: (a.u.)
     X:     0.0000      Y:     0.0000      Z:     0.0038

  Dipole Moment: (a.u.)
     X:     0.0000      Y:     0.0000      Z:     0.0038     Total:     0.0038

  Dipole Moment: (Debye)
     X:     0.0000      Y:     0.0000      Z:     0.0096     Total:     0.0096


*** tstop() called on google.com at Tue Sep 12 15:09:20 2017
Module time:
	user time   =       0.14 seconds =       0.00 minutes
	system time =       0.00 seconds =       0.00 minutes
	total time  =          0 seconds =       0.00 minutes
Total time:
	user time   =       0.42 seconds =       0.01 minutes
	system time =       0.00 seconds =       0.00 minutes
	total time  =          0 seconds =       0.00 minutes

*** tstart() called on google.com
*** at Tue Sep 12 15:09:20 2017


  //>>>>>>>>>>>>>>>>>>>>>>>>>>>>>>>>>>>//
  //               DFMP2               //
  //<<<<<<<<<<<<<<<<<<<<<<<<<<<<<<<<<<<//

   => Loading Basis Set <=

    Name: (STO-3G AUX)
    Role: RIFIT
    Keyword: DF_BASIS_MP2
    atoms 1-9 entry H          line    23 file /usr/local/google/home/babbush/anaconda2/share/psi4/basis/def2-qzvpp-ri.gbs 

	 --------------------------------------------------------
	                          DF-MP2                         
	      2nd-Order Density-Fitted Moller-Plesset Theory     
	          ROHF-MBPT(2) Wavefunction,   1 Threads         
	                                                         
	        Rob Parrish, Justin Turney, Andy Simmonett,      
	           Ed Hohenstein, and C. David Sherrill          
	 --------------------------------------------------------

	 --------------------------------------------------------
	                 NBF =     9, NAUX =   504
	 --------------------------------------------------------
	   CLASS    FOCC     OCC    AOCC    AVIR     VIR    FVIR
	   ALPHA       0       5       5       4       4       0
	    BETA       0       4       4       5       5       0
	 --------------------------------------------------------

	-----------------------------------------------------------
	 ==================> DF-MP2 Energies <==================== 
	-----------------------------------------------------------
	 Reference Energy          =      -4.2835457573765474 [Eh]
	 Singles Energy            =      -0.0041495531562818 [Eh]
	 Same-Spin Energy          =      -0.0142362836706028 [Eh]
	 Opposite-Spin Energy      =      -0.0508428350402682 [Eh]
	 Correlation Energy        =      -0.0692286718671527 [Eh]
	 Total Energy              =      -4.3527744292437003 [Eh]
	-----------------------------------------------------------
	 ================> DF-SCS-MP2 Energies <================== 
	-----------------------------------------------------------
	 SCS Same-Spin Scale       =       0.3333333333333333 [-]
	 SCS Opposite-Spin Scale   =       1.2000000000000000 [-]
	 SCS Same-Spin Energy      =      -0.0047454278902009 [Eh]
	 SCS Opposite-Spin Energy  =      -0.0610114020483218 [Eh]
	 SCS Correlation Energy    =      -0.0699063830948045 [Eh]
	 SCS Total Energy          =      -4.3534521404713518 [Eh]
	-----------------------------------------------------------


*** tstop() called on google.com at Tue Sep 12 15:09:20 2017
Module time:
	user time   =       0.32 seconds =       0.01 minutes
	system time =       0.01 seconds =       0.00 minutes
	total time  =          0 seconds =       0.00 minutes
Total time:
	user time   =       0.74 seconds =       0.01 minutes
	system time =       0.02 seconds =       0.00 minutes
	total time  =          0 seconds =       0.00 minutes

*** tstart() called on google.com
*** at Tue Sep 12 15:09:20 2017

   => Loading Basis Set <=

    Name: STO-3G
    Role: ORBITAL
    Keyword: BASIS
    atoms 1-9 entry H          line    18 file /usr/local/google/home/babbush/anaconda2/share/psi4/basis/sto-3g.gbs 


         ---------------------------------------------------------
                                   SCF
            by Justin Turney, Rob Parrish, and Andy Simmonett
                             ROHF Reference
                        1 Threads,   7629 MiB Core
         ---------------------------------------------------------

  ==> Geometry <==

    Molecular point group: c1
    Full point group: D9h

    Geometry (in Angstrom), charge = 0, multiplicity = 2:

       Center              X                  Y                   Z               Mass       
    ------------   -----------------  -----------------  -----------------  -----------------
           H          0.000000000000     0.000000000000     1.083854291140     1.007825032070
           H          0.000000000000    -0.696688109051     0.830280556879     1.007825032070
           H          0.000000000000    -1.067388109050     0.188209322513     1.007825032070
           H          0.000000000000    -0.938645350128    -0.541927145570     1.007825032070
           H          0.000000000000    -0.370700000000    -1.018489879390     1.007825032070
           H          0.000000000000     0.370700000000    -1.018489879390     1.007825032070
           H          0.000000000000     0.938645350128    -0.541927145570     1.007825032070
           H          0.000000000000     1.067388109050     0.188209322513     1.007825032070
           H          0.000000000000     0.696688109051     0.830280556879     1.007825032070

  Running in c1 symmetry.

  Rotational constants: A =      3.16415  B =      3.16415  C =      1.58207 [cm^-1]
  Rotational constants: A =  94858.82448  B =  94858.82448  C =  47429.41224 [MHz]
  Nuclear repulsion =   14.609719634197905

  Charge       = 0
  Multiplicity = 2
  Electrons    = 9
  Nalpha       = 5
  Nbeta        = 4

  ==> Algorithm <==

  SCF Algorithm Type is PK.
  DIIS enabled.
  MOM disabled.
  Fractional occupation disabled.
  Guess Type is GWH.
  Energy threshold   = 1.00e-06
  Density threshold  = 1.00e-06
  Integral threshold = 0.00e+00

  ==> Primary Basis <==

  Basis Set: STO-3G
    Blend: STO-3G
    Number of shells: 9
    Number of basis function: 9
    Number of Cartesian functions: 9
    Spherical Harmonics?: true
    Max angular momentum: 0

  ==> Pre-Iterations <==

   -------------------------------------------------------
    Irrep   Nso     Nmo     Nalpha   Nbeta   Ndocc  Nsocc
   -------------------------------------------------------
     A          9       9       0       0       0       0
   -------------------------------------------------------
    Total       9       9       5       4       4       1
   -------------------------------------------------------

  ==> Integral Setup <==

  Using in-core PK algorithm.
   Calculation information:
      Number of atoms:                   9
      Number of AO shells:               9
      Number of primitives:             27
      Number of atomic orbitals:         9
      Number of basis functions:         9

      Integral cutoff                 1.00e-12
      Number of threads:                 1

  Performing in-core PK
  Using 2070 doubles for integral storage.
  We computed 1035 shell quartets total.
  Whereas there are 1035 unique shell quartets.
  ==> DiskJK: Disk-Based J/K Matrices <==

    J tasked:                  Yes
    K tasked:                  Yes
    wK tasked:                  No
    Memory (MB):              5722
    Schwarz Cutoff:          1E-12

    OpenMP threads:              1
  Minimum eigenvalue in the overlap matrix is 1.0651036623E-01.
  Using Symmetric Orthogonalization.

  SCF Guess: Generalized Wolfsberg-Helmholtz.

  ==> Iterations <==

                        Total Energy        Delta E     RMS |[F,P]|

   @ROHF iter   1:    -4.28211667743149   -4.28212e+00   3.20939e-03 
   @ROHF iter   2:    -4.28342916063444   -1.31248e-03   8.73563e-04 DIIS/DAMP
   @ROHF iter   3:    -4.28354260309802   -1.13442e-04   1.41255e-04 DIIS/DAMP
   @ROHF iter   4:    -4.28354557136931   -2.96827e-06   3.20728e-05 DIIS/DAMP
   @ROHF iter   5:    -4.28354575183582   -1.80467e-07   5.59785e-06 DIIS/DAMP
   @ROHF iter   6:    -4.28354575737655   -5.54073e-09   9.05429e-07 DIIS/DAMP

  ==> Post-Iterations <==

    Orbital Energies (a.u.)
    -----------------------

    Doubly Occupied:                                                      

       1A     -0.960237     2A     -0.727785     3A     -0.727779  
       4A     -0.242816  

    Singly Occupied:                                                      

       5A     -0.067612  

    Virtual:                                                              

       6A      0.843920     7A      0.844094     8A      1.867830  
       9A      1.868232  

    Final Occupation by Irrep:
              A 
    DOCC [     4 ]
    SOCC [     1 ]

  Energy converged.

  @ROHF Final Energy:    -4.28354575737655

   => Energetics <=

    Nuclear Repulsion Energy =             14.6097196341979050
    One-Electron Energy =                 -32.1848172825761978
    Two-Electron Energy =                  13.2915518910017418
    DFT Exchange-Correlation Energy =       0.0000000000000000
    Empirical Dispersion Energy =           0.0000000000000000
    PCM Polarization Energy =               0.0000000000000000
    EFP Energy =                            0.0000000000000000
    Total Energy =                         -4.2835457573765510



Properties will be evaluated at   0.000000,   0.000000,   0.000000 Bohr

Properties computed using the SCF density matrix

  Nuclear Dipole Moment: (a.u.)
     X:     0.0000      Y:     0.0000      Z:     0.0000

  Electronic Dipole Moment: (a.u.)
     X:     0.0000      Y:     0.0000      Z:     0.0038

  Dipole Moment: (a.u.)
     X:     0.0000      Y:     0.0000      Z:     0.0038     Total:     0.0038

  Dipole Moment: (Debye)
     X:     0.0000      Y:     0.0000      Z:     0.0096     Total:     0.0096


*** tstop() called on google.com at Tue Sep 12 15:09:21 2017
Module time:
	user time   =       0.19 seconds =       0.00 minutes
	system time =       0.01 seconds =       0.00 minutes
	total time  =          1 seconds =       0.02 minutes
Total time:
	user time   =       0.97 seconds =       0.02 minutes
	system time =       0.03 seconds =       0.00 minutes
	total time  =          1 seconds =       0.02 minutes
 MINTS: Wrapper to libmints.
   by Justin Turney

   Calculation information:
      Number of threads:                 1
      Number of atoms:                   9
      Number of AO shells:               9
      Number of SO shells:               9
      Number of primitives:             27
      Number of atomic orbitals:         9
      Number of basis functions:         9

      Number of irreps:                  1
      Integral cutoff                 0.00e+00
      Number of functions per irrep: [   9 ]

 OEINTS: Overlap, kinetic, potential, dipole, and quadrupole integrals
         stored in file 35.

      Computing two-electron integrals...done
      Computed 1035 non-zero two-electron integrals.
        Stored in file 33.


         ---------------------------------------------------------
                          Configuration Interaction
                            (a 'D E T C I' module)

                 C. David Sherrill, Daniel G. A. Smith, and
                              Matt L. Leininger
         ---------------------------------------------------------

Warning: iopen=0,opentype!=closed. Making iopen=1

   ==> Parameters <==

    EX LEVEL       =        2      H0 BLOCKSIZE  =     1000
    VAL EX LEVEL   =        0      H0 GUESS SIZE =     1000
    H0COUPLINGSIZE =        0      H0 COUPLING   =       NO
    MAXITER        =       24      NUM PRINT     =       20
    NUM ROOTS      =        1      ICORE         =        1
    PRINT LVL      =        1      FCI           =       NO
    R CONV         = 1.00e-06      MIXED         =      YES
    E CONV         = 1.00e-06      MIXED4        =      YES
    R4S            =       NO      REPL OTF      =       NO
    DIAG METHOD    =      SEM      FOLLOW ROOT   =        0
    PRECONDITIONER = DAVIDSON      UPDATE        = DAVIDSON
    S              =   0.5000      Ms0           =       NO
    GUESS VECTOR   =  H0BLOCK      OPENTYPE      = HIGHSPIN
    COLLAPSE SIZE  =        1      HD AVG        = EVANGELISTI
    MAX NUM VECS   =       25      REF SYM       =     AUTO
    IOPEN        =      YES

    EX ALLOW       =  1  1 
    STATE AVERAGE  =  0(1.00) 

   ==> CI Orbital and Space information <==

    RAS1 LVL      =        4      A RAS3 MAX    =        2
    RAS1 MIN      =        7      B RAS3 MAX    =        2
    A RAS1 LVL    =        4      RAS4 LVL      =        9
    A RAS1 MIN    =        3      A RAS4 MAX    =        0
    A RAS1 MAX    =        5      B RAS4 MAX    =        0
    B RAS1 LVL    =        4      RAS4 MAX      =        0
    B RAS1 MIN    =        2      A RAS34 MAX   =        2
    B RAS1 MAX    =        4      B RAS34 MAX   =        2
    RAS3 LVL      =        5      RAS34 MAX     =        2
    RAS3 MAX      =        2
   ------------------------------------
               Space    Total     A
   ------------------------------------
                 Nso        9     9
                 Nmo        9     9
               Ndocc        4     4
               Nsocc        1     1
   ------------------------------------
              CI Spaces
   ------------------------------------
        Dropped DOCC        0     0
                RAS1        5     5
                RAS2        0     0
                RAS3        4     4
                RAS4        0     0
      Active (total)        9     9
        Dropped UOCC        0     0
   ------------------------------------

   ==> Setting up CI strings <==

    There are 81 alpha and 105 beta strings
    The CI space requires 1305 (1.30E+03) determinants and 6 blocks

   ==> Transforming CI integrals <==

	Presorting SO-basis two-electron integrals.
	Sorting File: SO Ints (nn|nn) nbuckets = 1
	Transforming the one-electron integrals and constructing Fock matrices
	Starting first half-transformation.
	Sorting half-transformed integrals.
	First half integral transformation complete.
	Starting second half-transformation.
	Two-electron integral transformation complete.

   ==> Starting CI iterations <==

    H0 Block Eigenvalue =  -4.36569772

    Simultaneous Expansion Method (Block Davidson Method)
    Using 1 initial trial vectors

     Iter   Root       Total Energy       Delta E      C RMS

   @CI  0:     0     -4.365697716047   -1.8975E+01   1.1882E-01  
   @CI  1:     0     -4.368740927436   -3.0432E-03   1.2986E-02  
   @CI  2:     0     -4.368782995295   -4.2068E-05   1.8210E-03  
   @CI  3:     0     -4.368783993188   -9.9789E-07   5.8851E-04  
   @CI  4:     0     -4.368784141626   -1.4844E-07   1.7735E-04  
   @CI  5:     0     -4.368784153279   -1.1653E-08   3.3919E-05  
   @CI  6:     0     -4.368784153723   -4.4414E-10   7.4379E-06  
   @CI  7:     0     -4.368784153742   -1.8268E-11   1.5234E-06  
   @CI  8:     0     -4.368784153742   -7.8870E-13   2.9490E-07 c

   ==> Energetics <==

    SCF energy =           -4.283545757376551
    Total CI energy =      -4.368784153742411

   ==> CISD root 0 information <==

    CISD Root 0 energy =    -4.368784153742411

   The 20 most important determinants:

    *   1   -0.978740  (    0,    0)  1AX 2AX 3AX 4AX 5AA 
    *   2   -0.060698  (   21,    0)  1AX 2AX 3AX 4AB 6AA 7AA 
    *   3   -0.052017  (    2,    5)  1AX 2AX 3AX 5AA 6AX 
    *   4   -0.051697  (    7,   15)  1AX 2AX 3AX 5AA 7AX 
    *   5   -0.047205  (    6,    3)  1AX 2AA 3AX 4AX 5AB 7AA 
    *   6   -0.047157  (    1,    2)  1AX 2AX 3AA 4AX 5AB 6AA 
    *   7    0.046856  (    7,    2)  1AX 2AX 3AA 4AB 5AX 7AA 
    *   8   -0.046786  (    2,    3)  1AX 2AA 3AX 4AB 5AX 6AA 
    *   9   -0.033242  (    0,   10)  1AX 2AA 3AX 4AA 5AX 6AB 
    *  10    0.033220  (    0,   19)  1AX 2AX 3AA 4AA 5AX 7AB 
    *  11    0.030513  (    1,   15)  1AX 2AX 3AX 4AA 6AA 7AB 
    *  12   -0.030185  (    6,    5)  1AX 2AX 3AX 4AA 6AB 7AA 
    *  13   -0.028547  (    9,    0)  1AX 2AB 3AX 4AX 5AA 7AA 
    *  14   -0.028490  (    3,    0)  1AX 2AX 3AB 4AX 5AA 6AA 
    *  15   -0.027856  (    6,    1)  1AX 2AX 3AX 4AA 5AB 7AA 
    *  16    0.026409  (    2,    1)  1AX 2AX 3AX 5AX 6AA 
    *  17   -0.023216  (   11,    4)  1AA 2AX 3AX 4AX 5AB 8AA 
    *  18    0.022825  (   17,    4)  1AA 2AX 3AX 4AB 5AX 9AA 
    *  19   -0.022487  (    9,   17)  1AX 3AX 4AX 5AA 7AX 
    *  20   -0.022452  (    3,    6)  1AX 2AX 4AX 5AA 6AX 

		 "A good bug is a dead bug" 

			 - Starship Troopers

		 "I didn't write FORTRAN.  That's the problem."

			 - Edward Valeev

*** tstart() called on google.com
*** at Tue Sep 12 15:09:21 2017

   => Loading Basis Set <=

    Name: STO-3G
    Role: ORBITAL
    Keyword: BASIS
    atoms 1-9 entry H          line    18 file /usr/local/google/home/babbush/anaconda2/share/psi4/basis/sto-3g.gbs 


         ---------------------------------------------------------
                                   SCF
            by Justin Turney, Rob Parrish, and Andy Simmonett
                             ROHF Reference
                        1 Threads,   7629 MiB Core
         ---------------------------------------------------------

  ==> Geometry <==

    Molecular point group: c1
    Full point group: D9h

    Geometry (in Angstrom), charge = 0, multiplicity = 2:

       Center              X                  Y                   Z               Mass       
    ------------   -----------------  -----------------  -----------------  -----------------
           H          0.000000000000     0.000000000000     1.083854291140     1.007825032070
           H          0.000000000000    -0.696688109051     0.830280556879     1.007825032070
           H          0.000000000000    -1.067388109050     0.188209322513     1.007825032070
           H          0.000000000000    -0.938645350128    -0.541927145570     1.007825032070
           H          0.000000000000    -0.370700000000    -1.018489879390     1.007825032070
           H          0.000000000000     0.370700000000    -1.018489879390     1.007825032070
           H          0.000000000000     0.938645350128    -0.541927145570     1.007825032070
           H          0.000000000000     1.067388109050     0.188209322513     1.007825032070
           H          0.000000000000     0.696688109051     0.830280556879     1.007825032070

  Running in c1 symmetry.

  Rotational constants: A =      3.16415  B =      3.16415  C =      1.58207 [cm^-1]
  Rotational constants: A =  94858.82448  B =  94858.82448  C =  47429.41224 [MHz]
  Nuclear repulsion =   14.609719634197905

  Charge       = 0
  Multiplicity = 2
  Electrons    = 9
  Nalpha       = 5
  Nbeta        = 4

  ==> Algorithm <==

  SCF Algorithm Type is PK.
  DIIS enabled.
  MOM disabled.
  Fractional occupation disabled.
  Guess Type is GWH.
  Energy threshold   = 1.00e-06
  Density threshold  = 1.00e-06
  Integral threshold = 0.00e+00

  ==> Primary Basis <==

  Basis Set: STO-3G
    Blend: STO-3G
    Number of shells: 9
    Number of basis function: 9
    Number of Cartesian functions: 9
    Spherical Harmonics?: true
    Max angular momentum: 0

  ==> Pre-Iterations <==

   -------------------------------------------------------
    Irrep   Nso     Nmo     Nalpha   Nbeta   Ndocc  Nsocc
   -------------------------------------------------------
     A          9       9       0       0       0       0
   -------------------------------------------------------
    Total       9       9       5       4       4       1
   -------------------------------------------------------

  ==> Integral Setup <==

  Using in-core PK algorithm.
   Calculation information:
      Number of atoms:                   9
      Number of AO shells:               9
      Number of primitives:             27
      Number of atomic orbitals:         9
      Number of basis functions:         9

      Integral cutoff                 1.00e-12
      Number of threads:                 1

  Performing in-core PK
  Using 2070 doubles for integral storage.
  We computed 1035 shell quartets total.
  Whereas there are 1035 unique shell quartets.
  ==> DiskJK: Disk-Based J/K Matrices <==

    J tasked:                  Yes
    K tasked:                  Yes
    wK tasked:                  No
    Memory (MB):              5722
    Schwarz Cutoff:          1E-12

    OpenMP threads:              1
  Minimum eigenvalue in the overlap matrix is 1.0651036623E-01.
  Using Symmetric Orthogonalization.

  SCF Guess: Generalized Wolfsberg-Helmholtz.

  ==> Iterations <==

                        Total Energy        Delta E     RMS |[F,P]|

   @ROHF iter   1:    -4.28211667743149   -4.28212e+00   3.20939e-03 
   @ROHF iter   2:    -4.28342916063443   -1.31248e-03   8.73563e-04 DIIS/DAMP
   @ROHF iter   3:    -4.28354260309802   -1.13442e-04   1.41255e-04 DIIS/DAMP
   @ROHF iter   4:    -4.28354557136931   -2.96827e-06   3.20728e-05 DIIS/DAMP
   @ROHF iter   5:    -4.28354575183582   -1.80467e-07   5.59785e-06 DIIS/DAMP
   @ROHF iter   6:    -4.28354575737655   -5.54073e-09   9.05429e-07 DIIS/DAMP

  ==> Post-Iterations <==

    Orbital Energies (a.u.)
    -----------------------

    Doubly Occupied:                                                      

       1A     -0.960237     2A     -0.727785     3A     -0.727779  
       4A     -0.242816  

    Singly Occupied:                                                      

       5A     -0.067612  

    Virtual:                                                              

       6A      0.843920     7A      0.844094     8A      1.867830  
       9A      1.868232  

    Final Occupation by Irrep:
              A 
    DOCC [     4 ]
    SOCC [     1 ]

  Energy converged.

  @ROHF Final Energy:    -4.28354575737655

   => Energetics <=

    Nuclear Repulsion Energy =             14.6097196341979050
    One-Electron Energy =                 -32.1848172825761978
    Two-Electron Energy =                  13.2915518910017436
    DFT Exchange-Correlation Energy =       0.0000000000000000
    Empirical Dispersion Energy =           0.0000000000000000
    PCM Polarization Energy =               0.0000000000000000
    EFP Energy =                            0.0000000000000000
    Total Energy =                         -4.2835457573765492



Properties will be evaluated at   0.000000,   0.000000,   0.000000 Bohr

Properties computed using the SCF density matrix

  Nuclear Dipole Moment: (a.u.)
     X:     0.0000      Y:     0.0000      Z:     0.0000

  Electronic Dipole Moment: (a.u.)
     X:     0.0000      Y:     0.0000      Z:     0.0038

  Dipole Moment: (a.u.)
     X:     0.0000      Y:     0.0000      Z:     0.0038     Total:     0.0038

  Dipole Moment: (Debye)
     X:     0.0000      Y:     0.0000      Z:     0.0096     Total:     0.0096


*** tstop() called on google.com at Tue Sep 12 15:09:22 2017
Module time:
	user time   =       0.15 seconds =       0.00 minutes
	system time =       0.00 seconds =       0.00 minutes
	total time  =          1 seconds =       0.02 minutes
Total time:
	user time   =       1.95 seconds =       0.03 minutes
	system time =       0.07 seconds =       0.00 minutes
	total time  =          2 seconds =       0.03 minutes
 MINTS: Wrapper to libmints.
   by Justin Turney

   Calculation information:
      Number of threads:                 1
      Number of atoms:                   9
      Number of AO shells:               9
      Number of SO shells:               9
      Number of primitives:             27
      Number of atomic orbitals:         9
      Number of basis functions:         9

      Number of irreps:                  1
      Integral cutoff                 0.00e+00
      Number of functions per irrep: [   9 ]

 OEINTS: Overlap, kinetic, potential, dipole, and quadrupole integrals
         stored in file 35.

      Computing two-electron integrals...done
      Computed 1035 non-zero two-electron integrals.
        Stored in file 33.


         ---------------------------------------------------------
                          Configuration Interaction
                            (a 'D E T C I' module)

                 C. David Sherrill, Daniel G. A. Smith, and
                              Matt L. Leininger
         ---------------------------------------------------------

Warning: iopen=0,opentype!=closed. Making iopen=1

   ==> Parameters <==

    EX LEVEL       =        9      H0 BLOCKSIZE  =     1000
    VAL EX LEVEL   =        0      H0 GUESS SIZE =     1000
    H0COUPLINGSIZE =        0      H0 COUPLING   =       NO
    MAXITER        =       24      NUM PRINT     =       20
    NUM ROOTS      =        1      ICORE         =        1
    PRINT LVL      =        1      FCI           =      YES
    R CONV         = 1.00e-06      MIXED         =      YES
    E CONV         = 1.00e-06      MIXED4        =      YES
    R4S            =       NO      REPL OTF      =       NO
    DIAG METHOD    =      SEM      FOLLOW ROOT   =        0
    PRECONDITIONER = DAVIDSON      UPDATE        = DAVIDSON
    S              =   0.5000      Ms0           =       NO
    GUESS VECTOR   =  H0BLOCK      OPENTYPE      = HIGHSPIN
    COLLAPSE SIZE  =        1      HD AVG        = EVANGELISTI
    MAX NUM VECS   =       25      REF SYM       =     AUTO
    IOPEN        =      YES

    EX ALLOW       =  1  1  1  1  1  1  1  1  1 
    STATE AVERAGE  =  0(1.00) 

   ==> CI Orbital and Space information <==

   ------------------------------------
               Space    Total     A
   ------------------------------------
                 Nso        9     9
                 Nmo        9     9
               Ndocc        4     4
               Nsocc        1     1
   ------------------------------------
              CI Spaces
   ------------------------------------
        Dropped DOCC        0     0
              Active        9     9
        Dropped UOCC        0     0
   ------------------------------------

   ==> Setting up CI strings <==

    There are 126 alpha and 126 beta strings
    The CI space requires 15876 (1.59E+04) determinants and 1 blocks

   ==> Transforming CI integrals <==

	Presorting SO-basis two-electron integrals.
	Sorting File: SO Ints (nn|nn) nbuckets = 1
	Transforming the one-electron integrals and constructing Fock matrices
	Starting first half-transformation.
	Sorting half-transformed integrals.
	First half integral transformation complete.
	Starting second half-transformation.
	Two-electron integral transformation complete.

   ==> Starting CI iterations <==

    H0 Block Eigenvalue =  -4.36542738

    Simultaneous Expansion Method (Block Davidson Method)
    Using 1 initial trial vectors

     Iter   Root       Total Energy       Delta E      C RMS

   @CI  0:     0     -4.365427381239   -1.8975E+01   1.5971E-01  
   @CI  1:     0     -4.371107028551   -5.6796E-03   2.6895E-02  
   @CI  2:     0     -4.371259230741   -1.5220E-04   8.9708E-03  
   @CI  3:     0     -4.371278971423   -1.9741E-05   2.9371E-03  
   @CI  4:     0     -4.371281335382   -2.3640E-06   8.5422E-04  
   @CI  5:     0     -4.371281533294   -1.9791E-07   2.5104E-04  
   @CI  6:     0     -4.371281548540   -1.5246E-08   7.0185E-05  
   @CI  7:     0     -4.371281549716   -1.1760E-09   1.9710E-05  
   @CI  8:     0     -4.371281549809   -9.3028E-11   5.6913E-06  
   @CI  9:     0     -4.371281549817   -8.3631E-12   1.7566E-06  
   @CI 10:     0     -4.371281549818   -7.6028E-13   5.4153E-07 c

   ==> Energetics <==

    SCF energy =           -4.283545757376549
    Total CI energy =      -4.371281549817827

   ==> FCI root 0 information <==

    FCI Root 0 energy =    -4.371281549817827

   The 20 most important determinants:

    *   1    0.977015  (    0,    0)  1AX 2AX 3AX 4AX 5AA 
    *   2    0.062768  (   11,    0)  1AX 2AX 3AX 4AB 6AA 7AA 
    *   3    0.053585  (    2,    5)  1AX 2AX 3AX 5AA 6AX 
    *   4    0.053249  (    7,   15)  1AX 2AX 3AX 5AA 7AX 
    *   5    0.048657  (    6,    3)  1AX 2AA 3AX 4AX 5AB 7AA 
    *   6    0.048602  (    1,    2)  1AX 2AX 3AA 4AX 5AB 6AA 
    *   7   -0.048304  (    7,    2)  1AX 2AX 3AA 4AB 5AX 7AA 
    *   8    0.048227  (    2,    3)  1AX 2AA 3AX 4AB 5AX 6AA 
    *   9    0.034322  (    0,   10)  1AX 2AA 3AX 4AA 5AX 6AB 
    *  10   -0.034300  (    0,   19)  1AX 2AX 3AA 4AA 5AX 7AB 
    *  11   -0.031555  (    1,   15)  1AX 2AX 3AX 4AA 6AA 7AB 
    *  12    0.031213  (    6,    5)  1AX 2AX 3AX 4AA 6AB 7AA 
    *  13    0.030022  (    6,    1)  1AX 2AX 3AX 4AA 5AB 7AA 
    *  14    0.029233  (    9,    0)  1AX 2AB 3AX 4AX 5AA 7AA 
    *  15    0.029170  (    3,    0)  1AX 2AX 3AB 4AX 5AA 6AA 
    *  16   -0.028692  (    2,    1)  1AX 2AX 3AX 5AX 6AA 
    *  17    0.023924  (   21,    4)  1AA 2AX 3AX 4AX 5AB 8AA 
    *  18   -0.023558  (   57,    4)  1AA 2AX 3AX 4AB 5AX 9AA 
    *  19    0.022996  (    9,   17)  1AX 3AX 4AX 5AA 7AX 
    *  20    0.022962  (    3,    6)  1AX 2AX 4AX 5AA 6AX 

		 "A good bug is a dead bug" 

			 - Starship Troopers

		 "I didn't write FORTRAN.  That's the problem."

			 - Edward Valeev

*** tstart() called on google.com
*** at Tue Sep 12 15:09:23 2017

   => Loading Basis Set <=

    Name: STO-3G
    Role: ORBITAL
    Keyword: BASIS
    atoms 1-9 entry H          line    18 file /usr/local/google/home/babbush/anaconda2/share/psi4/basis/sto-3g.gbs 


         ---------------------------------------------------------
                                   SCF
            by Justin Turney, Rob Parrish, and Andy Simmonett
                             ROHF Reference
                        1 Threads,   7629 MiB Core
         ---------------------------------------------------------

  ==> Geometry <==

    Molecular point group: c1
    Full point group: D9h

    Geometry (in Angstrom), charge = 0, multiplicity = 2:

       Center              X                  Y                   Z               Mass       
    ------------   -----------------  -----------------  -----------------  -----------------
           H          0.000000000000     0.000000000000     1.083854291140     1.007825032070
           H          0.000000000000    -0.696688109051     0.830280556879     1.007825032070
           H          0.000000000000    -1.067388109050     0.188209322513     1.007825032070
           H          0.000000000000    -0.938645350128    -0.541927145570     1.007825032070
           H          0.000000000000    -0.370700000000    -1.018489879390     1.007825032070
           H          0.000000000000     0.370700000000    -1.018489879390     1.007825032070
           H          0.000000000000     0.938645350128    -0.541927145570     1.007825032070
           H          0.000000000000     1.067388109050     0.188209322513     1.007825032070
           H          0.000000000000     0.696688109051     0.830280556879     1.007825032070

  Running in c1 symmetry.

  Rotational constants: A =      3.16415  B =      3.16415  C =      1.58207 [cm^-1]
  Rotational constants: A =  94858.82448  B =  94858.82448  C =  47429.41224 [MHz]
  Nuclear repulsion =   14.609719634197905

  Charge       = 0
  Multiplicity = 2
  Electrons    = 9
  Nalpha       = 5
  Nbeta        = 4

  ==> Algorithm <==

  SCF Algorithm Type is PK.
  DIIS enabled.
  MOM disabled.
  Fractional occupation disabled.
  Guess Type is GWH.
  Energy threshold   = 1.00e-06
  Density threshold  = 1.00e-06
  Integral threshold = 0.00e+00

  ==> Primary Basis <==

  Basis Set: STO-3G
    Blend: STO-3G
    Number of shells: 9
    Number of basis function: 9
    Number of Cartesian functions: 9
    Spherical Harmonics?: true
    Max angular momentum: 0

  ==> Pre-Iterations <==

   -------------------------------------------------------
    Irrep   Nso     Nmo     Nalpha   Nbeta   Ndocc  Nsocc
   -------------------------------------------------------
     A          9       9       0       0       0       0
   -------------------------------------------------------
    Total       9       9       5       4       4       1
   -------------------------------------------------------

  ==> Integral Setup <==

  Using in-core PK algorithm.
   Calculation information:
      Number of atoms:                   9
      Number of AO shells:               9
      Number of primitives:             27
      Number of atomic orbitals:         9
      Number of basis functions:         9

      Integral cutoff                 1.00e-12
      Number of threads:                 1

  Performing in-core PK
  Using 2070 doubles for integral storage.
  We computed 1035 shell quartets total.
  Whereas there are 1035 unique shell quartets.
  ==> DiskJK: Disk-Based J/K Matrices <==

    J tasked:                  Yes
    K tasked:                  Yes
    wK tasked:                  No
    Memory (MB):              5722
    Schwarz Cutoff:          1E-12

    OpenMP threads:              1
  Minimum eigenvalue in the overlap matrix is 1.0651036623E-01.
  Using Symmetric Orthogonalization.

  SCF Guess: Generalized Wolfsberg-Helmholtz.

  ==> Iterations <==

                        Total Energy        Delta E     RMS |[F,P]|

   @ROHF iter   1:    -4.28211667743149   -4.28212e+00   3.20939e-03 
   @ROHF iter   2:    -4.28342916063444   -1.31248e-03   8.73563e-04 DIIS/DAMP
   @ROHF iter   3:    -4.28354260309803   -1.13442e-04   1.41255e-04 DIIS/DAMP
   @ROHF iter   4:    -4.28354557136931   -2.96827e-06   3.20728e-05 DIIS/DAMP
   @ROHF iter   5:    -4.28354575183583   -1.80467e-07   5.59785e-06 DIIS/DAMP
   @ROHF iter   6:    -4.28354575737656   -5.54072e-09   9.05429e-07 DIIS/DAMP

  ==> Post-Iterations <==

    Orbital Energies (a.u.)
    -----------------------

    Doubly Occupied:                                                      

       1A     -0.960237     2A     -0.727785     3A     -0.727779  
       4A     -0.242816  

    Singly Occupied:                                                      

       5A     -0.067612  

    Virtual:                                                              

       6A      0.843920     7A      0.844094     8A      1.867830  
       9A      1.868232  

    Final Occupation by Irrep:
              A 
    DOCC [     4 ]
    SOCC [     1 ]

  Energy converged.

  @ROHF Final Energy:    -4.28354575737656

   => Energetics <=

    Nuclear Repulsion Energy =             14.6097196341979050
    One-Electron Energy =                 -32.1848172825762049
    Two-Electron Energy =                  13.2915518910017418
    DFT Exchange-Correlation Energy =       0.0000000000000000
    Empirical Dispersion Energy =           0.0000000000000000
    PCM Polarization Energy =               0.0000000000000000
    EFP Energy =                            0.0000000000000000
    Total Energy =                         -4.2835457573765581



Properties will be evaluated at   0.000000,   0.000000,   0.000000 Bohr

Properties computed using the SCF density matrix

  Nuclear Dipole Moment: (a.u.)
     X:     0.0000      Y:     0.0000      Z:     0.0000

  Electronic Dipole Moment: (a.u.)
     X:     0.0000      Y:     0.0000      Z:     0.0038

  Dipole Moment: (a.u.)
     X:     0.0000      Y:     0.0000      Z:     0.0038     Total:     0.0038

  Dipole Moment: (Debye)
     X:     0.0000      Y:     0.0000      Z:     0.0096     Total:     0.0096


*** tstop() called on google.com at Tue Sep 12 15:09:23 2017
Module time:
	user time   =       0.14 seconds =       0.00 minutes
	system time =       0.01 seconds =       0.00 minutes
	total time  =          0 seconds =       0.00 minutes
Total time:
	user time   =       3.02 seconds =       0.05 minutes
	system time =       0.10 seconds =       0.00 minutes
	total time  =          3 seconds =       0.05 minutes
 MINTS: Wrapper to libmints.
   by Justin Turney

   Calculation information:
      Number of threads:                 1
      Number of atoms:                   9
      Number of AO shells:               9
      Number of SO shells:               9
      Number of primitives:             27
      Number of atomic orbitals:         9
      Number of basis functions:         9

      Number of irreps:                  1
      Integral cutoff                 0.00e+00
      Number of functions per irrep: [   9 ]

 OEINTS: Overlap, kinetic, potential, dipole, and quadrupole integrals
         stored in file 35.

      Computing two-electron integrals...done
      Computed 1035 non-zero two-electron integrals.
        Stored in file 33.


*** tstart() called on google.com
*** at Tue Sep 12 15:09:23 2017


	Wfn Parameters:
	--------------------
	Wavefunction         = CCSD
	Number of irreps     = 1
	Number of MOs        = 9
	Number of active MOs = 9
	AO-Basis             = NONE
	Semicanonical        = false
	Reference            = ROHF
	Print Level          = 1

	IRREP	# MOs	# FZDC	# DOCC	# SOCC	# VIRT	# FZVR
	-----	-----	------	------	------	------	------
	 A	   9	    0	    4	    1	    4	    0
	Transforming integrals...
	IWL integrals will be deleted.
	(OO|OO)...
	Presorting SO-basis two-electron integrals.
	Sorting File: SO Ints (nn|nn) nbuckets = 1
	Transforming the one-electron integrals and constructing Fock matrices
	Starting first half-transformation.
	Sorting half-transformed integrals.
	First half integral transformation complete.
	Starting second half-transformation.
	Two-electron integral transformation complete.
	(OO|OV)...
	Starting second half-transformation.
	Two-electron integral transformation complete.
	(OO|VV)...
	Starting second half-transformation.
	Two-electron integral transformation complete.
	(OV|OO)...
	Starting first half-transformation.
	Sorting half-transformed integrals.
	First half integral transformation complete.
	Starting second half-transformation.
	Two-electron integral transformation complete.
	(OV|OV)...
	Starting second half-transformation.
	Two-electron integral transformation complete.
	(OV|VV)...
	Starting second half-transformation.
	Two-electron integral transformation complete.
	(VV|OO)...
	Starting first half-transformation.
	Sorting half-transformed integrals.
	First half integral transformation complete.
	Starting second half-transformation.
	Two-electron integral transformation complete.
	(VV|OV)...
	Starting second half-transformation.
	Two-electron integral transformation complete.
	(VV|VV)...
	Starting second half-transformation.
	Two-electron integral transformation complete.
	Frozen core energy     =      0.00000000000000

	Size of irrep 0 of <ab|cd> integrals:      0.001 (MW) /      0.005 (MB)
	Total:                                     0.001 (MW) /      0.005 (MB)

	Size of irrep 0 of <ia|bc> integrals:      0.001 (MW) /      0.005 (MB)
	Total:                                     0.001 (MW) /      0.005 (MB)

	Size of irrep 0 of tIjAb amplitudes:       0.001 (MW) /      0.005 (MB)
	Total:                                     0.001 (MW) /      0.005 (MB)

	Nuclear Rep. energy          =     14.60971963419790
	SCF energy                   =     -4.28354575737656
	One-electron energy          =    -32.18481728535234
	Two-electron (AA) energy     =      3.22467753101610
	Two-electron (BB) energy     =      1.87137660818291
	Two-electron (AB) energy     =      8.19549775443056
	Two-electron energy          =    -18.89326539172276
	Reference energy             =     -4.28354575752485

*** tstop() called on google.com at Tue Sep 12 15:09:23 2017
Module time:
	user time   =       0.00 seconds =       0.00 minutes
	system time =       0.03 seconds =       0.00 minutes
	total time  =          0 seconds =       0.00 minutes
Total time:
	user time   =       3.04 seconds =       0.05 minutes
	system time =       0.13 seconds =       0.00 minutes
	total time  =          3 seconds =       0.05 minutes

*** tstart() called on google.com
*** at Tue Sep 12 15:09:23 2017

            **************************
            *                        *
            *        CCENERGY        *
            *                        *
            **************************

    Nuclear Rep. energy (wfn)     =   14.609719634197905
    SCF energy          (wfn)     =   -4.283545757376558
    Reference energy    (file100) =   -4.283545757524852

    Input parameters:
    -----------------
    Wave function   =     CCSD
    Reference wfn   =     ROHF
    Brueckner       =     No
    Memory (Mbytes) =     8000.0
    Maxiter         =   1000000
    R_Convergence   =     1.0e-06
    E_Convergence   =     1.0e-06
    Restart         =     Yes
    DIIS            =     Yes
    AO Basis        =     NONE
    ABCD            =     NEW
    Cache Level     =     2
    Cache Type      =     LOW
    Print Level     =     1
    Num. of threads =     1
    # Amps to Print =     1000000
    Print MP2 Amps? =     No
    Analyze T2 Amps =     No
    Print Pair Ener =     No
    Local CC        =     No
    SCS-MP2         =     False
    SCSN-MP2        =     False
    SCS-CCSD        =     False

                Solving CC Amplitude Equations
                ------------------------------
  Iter             Energy              RMS        T1Diag      D1Diag    New D1Diag    D2Diag
  ----     ---------------------    ---------   ----------  ----------  ----------   --------
     0        -0.069358678725463    0.000e+00    0.000060    0.000175    0.000175    0.000000
     1        -0.081210265207555    3.554e-02    0.002432    0.004720    0.004720    0.000000
     2        -0.085672429551933    1.449e-02    0.004293    0.008118    0.008438    0.000000
     3        -0.086012587316367    4.153e-03    0.004900    0.009198    0.010025    0.000000
     4        -0.086019013985742    7.417e-04    0.004869    0.009121    0.009989    0.000000
     5        -0.086020821175697    1.730e-04    0.004855    0.009094    0.009954    0.000000
     6        -0.086023380843638    4.166e-05    0.004852    0.009091    0.009944    0.000000
     7        -0.086023340870637    7.605e-06    0.004852    0.009092    0.009944    0.000000
     8        -0.086023279534284    1.593e-06    0.004853    0.009092    0.009945    0.000000
     9        -0.086023288173759    4.268e-07    0.004853    0.009092    0.009945    0.000000

    Iterations converged.


    Largest TIA Amplitudes:
              1   1        -0.0298464685
              2   0         0.0297815606
              3   1        -0.0226533428
              4   0         0.0140637700
              0   2         0.0134782823
              2   2         0.0071411142
              1   3        -0.0071199092
              0   0         0.0000954676
              4   2        -0.0000344678
              3   3        -0.0000076025
              1   2        -0.0000066916
              2   3        -0.0000066716
              2   1         0.0000024102
              1   0         0.0000024056
              0   1         0.0000000976
              4   3         0.0000000331
              3   0        -0.0000000104

    Largest Tia Amplitudes:
              2   0        -0.0197440485
              1   1         0.0197432946
              0   2        -0.0110141282
              3   1         0.0075633900
              2   2        -0.0054533418
              1   3         0.0054049385
              2   4         0.0022055621
              0   0        -0.0000535229
              0   4         0.0000247793
              3   3         0.0000234942
              1   2         0.0000051100
              2   3         0.0000050647
              2   1        -0.0000015953
              1   0        -0.0000015939
              1   4         0.0000001785
              0   1        -0.0000000544
              3   2         0.0000000246

    Largest TIJAB Amplitudes:
      4   3   1   0         0.0615692475
      2   1   1   0         0.0134483245
      3   2   3   0        -0.0094094544
      3   1   3   1        -0.0091973287
      4   3   3   2         0.0091798707
      3   1   2   0        -0.0088702435
      3   2   2   1         0.0086545861
      4   1   2   1        -0.0084116723
      4   2   2   0        -0.0082068770
      4   2   3   1        -0.0078735155
      4   1   3   0         0.0076681107
      3   0   3   0         0.0039245909
      2   1   3   2         0.0036694918
      3   0   2   1         0.0036092912
      4   0   3   1         0.0030329379
      4   0   2   0        -0.0027402359
      2   0   3   1        -0.0024891260
      1   0   3   0        -0.0024758370
      1   0   2   1         0.0022763262
      2   0   2   0        -0.0022666024
      3   2   1   0         0.0006780914
      4   1   1   0        -0.0003859224
      2   1   2   1         0.0001810135
      2   1   3   0        -0.0001770955
      1   0   3   2         0.0001053209
      4   3   3   0         0.0000426025
      4   3   2   1        -0.0000402150
      3   2   3   2         0.0000371745
      3   1   3   0         0.0000088138
      3   2   3   1        -0.0000086131
      3   2   2   0        -0.0000083068
      3   1   2   1        -0.0000081064
      4   2   2   1        -0.0000078796
      1   0   1   0         0.0000077578
      4   1   2   0         0.0000076851
      4   1   3   1         0.0000073730
      4   1   3   2         0.0000073101
      4   2   3   0         0.0000071829
      3   0   1   0         0.0000041172
      3   0   3   2         0.0000008536
      2   0   3   0         0.0000002007
      1   0   3   1        -0.0000001997
      2   0   2   1        -0.0000001846
      2   1   2   0        -0.0000001835
      1   0   2   0        -0.0000001817
      2   1   3   1        -0.0000001810
      2   0   3   2         0.0000000987
      3   1   1   0         0.0000000550
      4   3   3   1         0.0000000427
      4   3   2   0         0.0000000416
      4   2   1   0         0.0000000314

    Largest Tijab Amplitudes:
      3   1   4   0         0.0335867533
      3   2   4   1         0.0335848055
      2   1   1   0         0.0170740127
      3   0   4   3         0.0125305943
      2   0   4   0         0.0072684403
      1   0   4   1         0.0072683633
      3   2   3   0        -0.0062761095
      3   1   2   0        -0.0062696267
      3   1   3   1        -0.0062065229
      3   2   2   1         0.0061928262
      2   1   3   2         0.0033649307
      3   1   4   2        -0.0032720871
      3   2   4   3        -0.0032647724
      2   0   3   1        -0.0029667823
      1   0   3   0        -0.0029638309
      3   0   3   0         0.0027982988
      3   0   2   1         0.0025622901
      1   0   2   1         0.0023957466
      2   0   2   0        -0.0023955521
      3   2   1   0         0.0007080620
      2   1   4   1        -0.0002628183
      2   1   2   1         0.0001692223
      2   1   3   0        -0.0001685830
      1   0   1   0         0.0001048961
      3   0   4   1         0.0000634920
      1   0   3   2         0.0000563605
      1   0   4   3         0.0000283844
      2   0   4   2         0.0000117956
      3   2   3   2         0.0000098782
      2   0   4   1         0.0000068084
      1   0   4   0        -0.0000068084
      3   1   3   0         0.0000058816
      3   2   2   0        -0.0000058684
      3   2   3   1        -0.0000058094
      3   1   2   1        -0.0000058036
      2   1   4   3         0.0000040799
      3   2   4   2        -0.0000030660
      3   1   4   3         0.0000030593
      3   2   4   0        -0.0000027129
      3   1   4   1         0.0000027123
      3   0   1   0         0.0000013680
      3   0   3   2         0.0000013198
      2   0   3   0         0.0000002403
      1   0   3   1        -0.0000002381
      2   0   2   1        -0.0000001943
      1   0   2   0        -0.0000001918
      2   1   2   0        -0.0000001721
      2   1   3   1        -0.0000001717
      2   0   1   0         0.0000000983
      3   0   4   0        -0.0000000647
      3   1   1   0         0.0000000575
      2   0   3   2         0.0000000528

    Largest TIjAb Amplitudes:
      3   3   0   0        -0.0536881507
      3   3   1   1        -0.0531219973
      4   1   1   4         0.0484215194
      4   2   0   4        -0.0484004346
      3   2   1   4        -0.0474903796
      3   1   0   4        -0.0474703636
      4   3   0   1        -0.0312965673
      4   3   1   0         0.0308053533
      4   3   1   4         0.0285525016
      3   3   0   4         0.0279053255
      4   0   2   4        -0.0244411437
      3   0   3   4        -0.0239155410
      1   1   1   1        -0.0228500322
      2   2   0   0        -0.0228195953
      2   2   1   1        -0.0225948112
      1   1   0   0        -0.0225574437
      2   0   0   4        -0.0206111123
      1   0   1   4        -0.0206094410
      2   3   0   3        -0.0149264069
      1   3   1   3        -0.0149239901
      2   3   1   2         0.0149156411
      1   3   0   2        -0.0149141134
      3   3   3   3        -0.0142814410
      3   2   3   0        -0.0142766920
      2   3   1   4        -0.0142235405
      3   3   2   2        -0.0141763539
      1   3   0   4        -0.0141331528
      3   1   3   1        -0.0140733107
      0   0   1   1        -0.0138281686
      0   0   0   0        -0.0138233768
      0   2   0   4        -0.0133856531
      0   1   1   4        -0.0133849556
      4   1   2   1        -0.0129389168
      3   1   2   0        -0.0127868847
      4   2   2   0        -0.0127654909
      3   2   2   1         0.0125877537
      4   2   2   4        -0.0124310286
      4   1   3   4         0.0123578649
      3   1   2   4         0.0119221268
      3   2   3   4         0.0119099474
      4   2   3   1        -0.0114994941
      0   3   3   4        -0.0114980111
      4   1   3   0         0.0113328855
      0   3   1   2         0.0108690372
      0   3   0   3         0.0108187883
      3   1   0   0         0.0105325621
      3   0   3   0         0.0103613454
      0   1   1   2         0.0100827946
      0   2   0   2        -0.0100688309
      0   2   1   3        -0.0100225549
      0   1   0   3        -0.0100126989
      3   0   2   1         0.0099956566
      3   2   0   1         0.0098087493
      3   2   1   0         0.0095307712
      2   2   3   3        -0.0094500384
      1   1   2   2        -0.0094351549
      1   0   2   1         0.0094351210
      2   0   3   1        -0.0094154844
      2   0   2   0        -0.0093989030
      1   1   3   3        -0.0093875868
      1   0   3   0        -0.0093795699
      2   2   2   2        -0.0093703178
      2   1   0   1        -0.0091747263
      2   3   1   0         0.0091609723
      1   2   1   0        -0.0091479395
      1   3   0   0         0.0091478312
      1   1   2   4         0.0091114396
      4   0   3   1         0.0090798343
      2   2   2   4        -0.0090606693
      2   1   3   4        -0.0090588431
      1   2   3   4        -0.0090284251
      1   3   1   1        -0.0089911908
      2   3   0   1         0.0089877888
      3   1   1   1        -0.0088076123
      4   0   2   0        -0.0087708044
      1   3   2   4         0.0086959348
      2   3   3   4         0.0086895845
      4   2   1   1         0.0083589926
      3   2   0   3        -0.0080451139
      3   1   1   3        -0.0079311306
      3   0   0   3         0.0079128875
      1   2   0   1         0.0077149390
      4   1   1   0         0.0077124699
      2   1   1   0         0.0076878643
      3   0   1   2         0.0075591200
      4   1   0   1         0.0073807381
      0   0   3   3        -0.0072739119
      3   1   0   2        -0.0072085002
      0   0   2   2        -0.0071349585
      3   2   1   2         0.0071045428
      0   2   3   1        -0.0070479521
      0   1   3   0        -0.0070411879
      2   0   1   3        -0.0069762532
      1   0   0   3        -0.0069487431
      4   2   0   0        -0.0067419695
      1   0   1   2         0.0067319135
      2   0   0   2        -0.0067011055
      0   3   3   0         0.0065748556
      0   1   2   1         0.0065704696
      0   2   2   0        -0.0065631355
      0   3   2   1         0.0063539017
      4   0   1   3         0.0061480903
      2   1   1   2         0.0060495873
      1   2   0   3         0.0060203156
      1   2   1   2         0.0059388066
      2   1   0   3         0.0059136042
      4   0   0   2        -0.0058379611
      2   1   3   0         0.0057831676
      1   2   2   1         0.0056643271
      2   3   3   0        -0.0054981945
      1   2   3   0         0.0054536329
      1   3   2   0        -0.0053608541
      2   1   2   1         0.0053373341
      1   3   3   1        -0.0053132746
      2   2   3   1         0.0052869861
      1   0   2   3         0.0052715154
      2   0   3   3         0.0052604124
      3   1   2   2        -0.0052383259
      0   1   3   2         0.0052289830
      3   2   3   2         0.0052245860
      3   2   2   3         0.0052165405
      0   2   3   3         0.0052134534
      3   1   3   3         0.0052054230
      2   3   2   1         0.0051771621
      0   2   2   2        -0.0051731934
      0   1   2   3         0.0051584409
      2   0   2   2        -0.0051534671
      1   0   3   2         0.0051433617
      1   1   2   0         0.0050713530
      2   3   2   3         0.0050500170
      1   3   3   3         0.0050348133
      1   3   2   2        -0.0050273968
      2   3   3   2         0.0050108029
      1   1   3   1        -0.0049198668
      2   2   2   0        -0.0046970435
      4   3   2   3        -0.0046629058
      2   2   1   3         0.0046624719
      1   1   0   2         0.0046279047
      1   1   1   3        -0.0046034252
      4   3   3   2         0.0045829213
      2   2   0   2        -0.0045668085
      4   1   1   2        -0.0045630583
      4   2   0   2        -0.0044765529
      4   2   2   2        -0.0043798988
      4   1   2   3        -0.0043579466
      4   1   3   2        -0.0043476291
      4   2   3   3         0.0043227931
      4   2   1   3        -0.0037272101
      4   1   0   3         0.0036494173
      3   0   1   0        -0.0025400574
      3   0   0   1        -0.0025396212
      4   0   1   1         0.0025296893
      4   0   0   0        -0.0025268675
      1   2   3   2        -0.0018221132
      2   1   3   2         0.0018047320
      2   1   2   3        -0.0017981435
      1   2   2   3         0.0017784254
      0   1   1   0         0.0009952105
      0   2   0   0         0.0009396822
      1   0   1   0         0.0007824678
      0   2   1   1        -0.0007794470
      2   0   0   0         0.0007637875
      0   1   0   1         0.0007186499
      2   0   1   1        -0.0004581229
      1   0   0   1         0.0004186981
      1   2   1   4        -0.0003571703
      2   2   0   4         0.0002428343
      3   3   3   1         0.0002407552
      3   3   2   0         0.0002366916
      4   3   3   0         0.0002059713
      4   3   2   1        -0.0002026996
      2   1   1   4         0.0001734148
      4   0   0   4        -0.0001557962
      1   0   3   4        -0.0001301206
      3   3   1   3         0.0000868214
      3   0   1   4        -0.0000850147
      3   3   0   2         0.0000819882
      1   1   0   4         0.0000698933
      0   0   0   4        -0.0000494597
      2   0   2   4        -0.0000489206
      4   3   1   2        -0.0000451548
      4   3   0   3         0.0000446433
      0   1   3   4        -0.0000389104
      4   3   3   4         0.0000290480
      0   3   1   0        -0.0000260078
      0   3   0   1        -0.0000259393
      0   2   2   4        -0.0000245723
      0   3   1   4        -0.0000217633
      0   0   3   1        -0.0000197345
      1   0   0   4         0.0000193071
      2   0   1   4        -0.0000193046
      0   0   2   0        -0.0000184277
      4   0   3   3         0.0000173738
      4   0   2   2        -0.0000141925
      2   3   1   3        -0.0000139792
      1   3   0   3         0.0000139781
      2   3   0   2        -0.0000139699
      1   3   1   2        -0.0000139679
      3   1   3   0         0.0000133694
      3   2   3   1        -0.0000131830
      0   1   0   4         0.0000125397
      0   2   1   4        -0.0000125366
      4   2   2   1        -0.0000121155
      3   2   2   0        -0.0000119780
      4   1   2   0         0.0000119591
      3   1   2   1        -0.0000117869
      4   1   2   4         0.0000116485
      4   2   3   4         0.0000115797
      3   2   2   4         0.0000111715
      3   1   3   4        -0.0000111601
      0   0   1   3        -0.0000110220
      4   1   3   1         0.0000107731
      4   2   3   0         0.0000106108
      0   0   0   2        -0.0000095347
      2   3   2   4         0.0000081484
      1   3   3   4        -0.0000081426
      1   2   2   4         0.0000077939
      2   2   3   4        -0.0000077679
      2   1   2   4         0.0000077628
      1   1   3   4         0.0000077162
      3   1   0   3         0.0000075301
      3   2   1   3        -0.0000074331
      3   2   0   2        -0.0000067563
      3   1   1   2        -0.0000066487
      3   0   3   2         0.0000059104
      2   2   1   2         0.0000051635
      1   3   3   0         0.0000051488
      1   1   0   3        -0.0000051388
      1   1   1   2        -0.0000051009
      2   2   0   3         0.0000050791
      2   3   2   0        -0.0000050217
      1   1   3   0        -0.0000049972
      2   3   3   1        -0.0000049770
      2   0   2   3         0.0000049389
      1   0   3   3        -0.0000049286
      2   2   2   1         0.0000049009
      0   2   3   2         0.0000048989
      0   1   3   3        -0.0000048847
      1   3   2   1        -0.0000048479
      0   1   2   2         0.0000048470
      0   2   2   3         0.0000048328
      1   0   2   2         0.0000048284
      2   0   3   2         0.0000048188
      2   2   3   0         0.0000046243
      1   2   3   1        -0.0000045376
      1   1   2   1        -0.0000045191
      2   1   2   0         0.0000043490
      4   2   1   2        -0.0000042691
      2   1   3   1        -0.0000042027
      4   1   0   2         0.0000041975
      2   1   1   3        -0.0000040219
      1   2   2   0         0.0000040157
      3   0   2   3         0.0000040030
      1   2   0   2         0.0000039933
      1   2   1   3        -0.0000039131
      4   2   1   4        -0.0000039113
      4   1   0   4        -0.0000039085
      2   1   0   2         0.0000038808
      3   1   1   4        -0.0000038355
      3   2   0   4         0.0000038340
      4   1   1   3         0.0000034954
      4   2   0   3         0.0000034132
      0   3   2   3        -0.0000032122
      3   0   1   1        -0.0000025855
      3   0   0   0         0.0000025829
      4   0   0   1        -0.0000025728
      4   0   1   0        -0.0000025721
      0   3   3   2        -0.0000022925
      1   3   1   4        -0.0000011488
      2   3   0   4         0.0000011414
      0   2   1   0         0.0000009344
      0   1   0   0        -0.0000008774
      1   2   0   0         0.0000008535
      2   1   0   0         0.0000008535
      1   2   1   1        -0.0000008534
      2   1   1   1        -0.0000008534
      3   2   0   0        -0.0000008460
      0   1   0   2        -0.0000008139
      0   2   1   2        -0.0000008111
      0   1   1   3        -0.0000008101
      0   2   0   3         0.0000008054
      3   1   0   1         0.0000007884
      3   1   1   0         0.0000007658
      2   0   2   1        -0.0000007601
      1   0   3   1        -0.0000007600
      1   0   2   0        -0.0000007586
      2   2   0   1        -0.0000007567
      1   1   0   1         0.0000007567
      2   2   1   0        -0.0000007561
      1   1   1   0         0.0000007561
      2   0   3   0         0.0000007555
      2   0   1   0         0.0000007433
      2   3   0   0        -0.0000007387
      1   3   1   0         0.0000007317
      0   1   1   1         0.0000007272
      2   3   1   1         0.0000007260
      1   3   0   1         0.0000007177
      3   2   1   1         0.0000007059
      1   0   0   0        -0.0000007047
      0   2   0   1         0.0000006752
      4   1   1   1         0.0000006683
      4   2   1   0        -0.0000006232
      4   2   0   1        -0.0000005963
      0   1   3   1        -0.0000005684
      0   2   3   0         0.0000005678
      1   0   1   3        -0.0000005647
      2   0   0   3         0.0000005581
      1   0   0   2        -0.0000005425
      2   0   1   2        -0.0000005405
      4   1   0   0        -0.0000005369
      0   2   2   1        -0.0000005297
      0   1   2   0        -0.0000005292
      3   1   3   2         0.0000004244
      3   1   2   3         0.0000004237
      3   2   2   2         0.0000004227
      3   2   3   3        -0.0000004201
      1   0   1   1         0.0000004182
      1   3   2   3         0.0000004098
      2   3   3   3        -0.0000004067
      1   3   3   2         0.0000004066
      2   3   2   2         0.0000004061
      2   0   0   1         0.0000004024
      4   1   2   2        -0.0000003561
      4   1   3   3         0.0000003515
      4   2   2   3         0.0000003513
      4   2   3   2         0.0000003505
      3   3   3   0        -0.0000002450
      3   3   2   1         0.0000002409
      4   3   3   1         0.0000002101
      4   3   2   0         0.0000002059
      4   0   1   4        -0.0000001585
      3   0   0   4         0.0000000866
      3   3   1   2         0.0000000862
      3   3   0   3        -0.0000000856
      3   3   2   4        -0.0000000657
      0   0   2   4         0.0000000571
      4   3   1   3         0.0000000480
      4   3   0   2         0.0000000433
      1   1   2   3         0.0000000414
      2   2   2   3        -0.0000000414
      1   1   3   2         0.0000000392
      2   2   3   2        -0.0000000392
      1   2   2   2        -0.0000000377
      2   1   2   2        -0.0000000377
      1   2   3   3         0.0000000357
      2   1   3   3         0.0000000357
      4   3   2   4         0.0000000299
      0   3   0   0         0.0000000268
      0   3   1   1        -0.0000000261
      0   3   0   4         0.0000000215
      0   0   3   0         0.0000000198
      2   1   0   4         0.0000000196
      1   2   0   4         0.0000000194
      0   0   2   1        -0.0000000190
      4   0   3   2         0.0000000168
      4   0   2   3         0.0000000154
      4   3   0   4         0.0000000132
      3   3   1   4        -0.0000000129
      0   0   0   3         0.0000000110
      2   0   3   4         0.0000000105

    SCF energy       (wfn)                    =   -4.283545757376558
    Reference energy (file100)                =   -4.283545757524852

    Opposite-spin CCSD correlation energy     =   -0.065082059783042
    Same-spin CCSD correlation energy         =   -0.016243824176175
    CCSD correlation energy                   =   -0.086023288173759
      * CCSD total energy                     =   -4.369569045698610


*** tstop() called on google.com at Tue Sep 12 15:09:25 2017
Module time:
	user time   =       1.62 seconds =       0.03 minutes
	system time =       0.15 seconds =       0.00 minutes
	total time  =          2 seconds =       0.03 minutes
Total time:
	user time   =       4.66 seconds =       0.08 minutes
	system time =       0.28 seconds =       0.00 minutes
	total time  =          5 seconds =       0.08 minutes

*** Psi4 exiting successfully. Buy a developer a beer!
